/*--------------------------------*- C++ -*----------------------------------*\
  =========                 |
  \\      /  F ield         | OpenFOAM: The Open Source CFD Toolbox
   \\    /   O peration     | Website:  https://openfoam.org
    \\  /    A nd           | Version:  7
     \\/     M anipulation  |
\*---------------------------------------------------------------------------*/
FoamFile
{
    version     2.0;
    format      ascii;
    class       volScalarField;
    location    "0.175";
    object      p;
}
// * * * * * * * * * * * * * * * * * * * * * * * * * * * * * * * * * * * * * //

dimensions      [0 2 -2 0 0 0 0];

internalField   nonuniform List<scalar> 
25600
(
-7.53056e-08
0.000168085
0.000277874
0.000242568
4.41952e-05
-0.000305571
-0.00079243
-0.00139995
-0.00211127
-0.00291025
-0.00378181
-0.00471211
-0.00568811
-0.00669791
-0.00773054
-0.00877607
-0.00982534
-0.01087
-0.0119024
-0.0129154
-0.0139028
-0.0148588
-0.015778
-0.0166557
-0.0174874
-0.0182691
-0.0189973
-0.0196686
-0.0202801
-0.0208295
-0.0213142
-0.0217324
-0.0220821
-0.022362
-0.0225708
-0.0227072
-0.0227706
-0.0227602
-0.0226756
-0.0225165
-0.0222828
-0.0219745
-0.0215916
-0.0211346
-0.020604
-0.0200003
-0.0193242
-0.0185765
-0.0177582
-0.0168703
-0.015914
-0.0148905
-0.0138012
-0.0126475
-0.0114308
-0.0101528
-0.00881519
-0.00741962
-0.00596797
-0.00446214
-0.00290407
-0.00129579
0.000360631
0.00206301
0.00380915
0.00559682
0.00742371
0.00928747
0.0111857
0.0131159
0.0150757
0.0170625
0.0190737
0.0211069
0.0231593
0.0252284
0.0273113
0.0294055
0.0315081
0.0336165
0.0357279
0.0378394
0.0399483
0.0420518
0.0441471
0.0462314
0.0483018
0.0503555
0.0523897
0.0544018
0.0563888
0.058348
0.0602768
0.0621724
0.0640321
0.0658533
0.0676334
0.0693699
0.0710602
0.072702
0.0742927
0.0758301
0.077312
0.0787361
0.0801004
0.0814027
0.0826411
0.0838139
0.0849191
0.0859553
0.0869209
0.0878145
0.0886347
0.0893805
0.0900507
0.0906445
0.0911611
0.0916
0.0919607
0.0922429
0.0924467
0.092572
0.0926192
0.0925887
0.0924813
0.0922979
0.0920396
0.0917078
0.0913041
0.0908304
0.0902888
0.0896816
0.0890117
0.0882819
0.0874957
0.0866567
0.085769
0.0848369
0.0838651
0.082859
0.0818242
0.0807668
0.0796936
0.0786117
0.077529
0.0764539
0.0753955
0.0743637
0.0733692
0.0724234
0.0715387
0.0707282
0.0700058
0.069386
0.0688832
0.0685105
0.0682774
0.0681857
0.0682248
0.0683389
-5.40598e-05
0.000109202
0.000176615
0.00011367
-7.99514e-05
-0.000400369
-0.000839227
-0.00138482
-0.00202429
-0.0027444
-0.00353249
-0.00437639
-0.00526459
-0.00618635
-0.0071316
-0.00809101
-0.00905602
-0.0100188
-0.0109719
-0.0119087
-0.012823
-0.0137091
-0.0145619
-0.0153768
-0.0161493
-0.0168756
-0.017552
-0.0181754
-0.0187428
-0.0192517
-0.0196998
-0.020085
-0.0204055
-0.0206598
-0.0208466
-0.0209647
-0.0210132
-0.0209915
-0.0208989
-0.0207352
-0.0205002
-0.0201938
-0.019816
-0.0193673
-0.0188478
-0.0182583
-0.0175992
-0.0168714
-0.0160758
-0.0152132
-0.0142848
-0.0132917
-0.0122352
-0.0111166
-0.00993744
-0.00869916
-0.00740335
-0.00605169
-0.00464594
-0.00318791
-0.00167945
-0.000122513
0.00148088
0.00312863
0.00481865
0.00654877
0.00831675
0.0101203
0.0119572
0.013825
0.0157214
0.0176437
0.0195898
0.0215569
0.0235427
0.0255445
0.0275597
0.0295856
0.0316198
0.0336594
0.0357018
0.0377444
0.0397844
0.0418191
0.0438458
0.0458618
0.0478643
0.0498506
0.0518181
0.0537641
0.0556858
0.0575807
0.0594461
0.0612793
0.0630779
0.0648393
0.066561
0.0682405
0.0698754
0.0714634
0.0730022
0.0744896
0.0759234
0.0773016
0.078622
0.0798828
0.081082
0.082218
0.0832891
0.0842938
0.0852306
0.0860982
0.0868954
0.087621
0.0882742
0.0888542
0.0893601
0.0897917
0.0901484
0.0904301
0.0906368
0.0907686
0.0908259
0.0908091
0.0907192
0.0905569
0.0903236
0.0900205
0.0896494
0.089212
0.0887106
0.0881475
0.0875253
0.0868471
0.0861162
0.0853362
0.084511
0.083645
0.0827427
0.0818093
0.0808502
0.0798714
0.0788794
0.0778809
0.0768835
0.0758951
0.0749243
0.0739802
0.0730725
0.0722117
0.0714087
0.0706749
0.0700219
0.0694613
0.0690043
0.0686601
0.068434
0.0683263
0.0683389
0.068453
-6.37871e-07
0.000169471
0.000215439
0.00013641
-5.58432e-05
-0.000358892
-0.000767031
-0.00127111
-0.00186057
-0.00252447
-0.00325166
-0.00403148
-0.00485357
-0.00570819
-0.00658608
-0.00747855
-0.00837754
-0.00927562
-0.0101658
-0.0110417
-0.0118974
-0.0127273
-0.0135265
-0.0142904
-0.0150147
-0.0156958
-0.0163299
-0.0169139
-0.0174451
-0.0179207
-0.0183385
-0.0186965
-0.0189928
-0.019226
-0.0193945
-0.0194973
-0.0195335
-0.0195022
-0.019403
-0.0192355
-0.0189993
-0.0186944
-0.018321
-0.0178791
-0.017369
-0.0167913
-0.0161465
-0.0154354
-0.0146587
-0.0138174
-0.0129124
-0.0119449
-0.010916
-0.00982701
-0.00867939
-0.00747452
-0.00621393
-0.00489924
-0.00353215
-0.00211439
-0.000647742
0.000865886
0.00242454
0.00402624
0.00566894
0.00735052
0.00906883
0.0108217
0.0126068
0.0144219
0.0162647
0.0181328
0.0200238
0.0219353
0.0238649
0.0258099
0.0277679
0.0297364
0.0317127
0.0336944
0.0356787
0.0376632
0.039645
0.0416218
0.0435907
0.0455491
0.0474945
0.0494241
0.0513354
0.0532258
0.0550926
0.0569333
0.0587454
0.0605263
0.0622735
0.0639846
0.0656572
0.0672888
0.0688773
0.0704202
0.0719154
0.0733609
0.0747544
0.076094
0.0773778
0.0786037
0.0797702
0.0808755
0.081918
0.0828963
0.0838091
0.084655
0.0854329
0.0861418
0.0867808
0.0873492
0.0878463
0.0882717
0.0886251
0.0889064
0.0891155
0.0892527
0.0893183
0.0893129
0.0892374
0.0890926
0.0888799
0.0886005
0.0882561
0.0878486
0.0873801
0.086853
0.08627
0.0856339
0.084948
0.084216
0.0834415
0.0826289
0.0817826
0.0809076
0.0800092
0.0790931
0.0781654
0.0772328
0.0763023
0.0753814
0.0744782
0.0736011
0.0727592
0.0719619
0.0712189
0.0705405
0.0699366
0.0694172
0.0689915
0.0686673
0.068449
0.0683387
0.0683514
0.068492
0.000181414
0.00034955
0.000382051
0.00029107
9.64514e-05
-0.000198533
-0.00058878
-0.00106616
-0.00162165
-0.00224558
-0.00292829
-0.00366012
-0.00443174
-0.00523426
-0.00605911
-0.00689832
-0.00774425
-0.00858986
-0.00942863
-0.0102544
-0.0110615
-0.0118446
-0.012599
-0.0133201
-0.0140039
-0.0146466
-0.0152448
-0.0157954
-0.0162955
-0.0167426
-0.0171345
-0.0174691
-0.0177446
-0.0179594
-0.0181122
-0.0182018
-0.0182273
-0.0181878
-0.0180829
-0.017912
-0.0176748
-0.0173714
-0.0170016
-0.0165658
-0.016064
-0.0154967
-0.0148645
-0.014168
-0.013408
-0.0125853
-0.011701
-0.010756
-0.0097514
-0.00868858
-0.00756878
-0.00639339
-0.0051639
-0.00388187
-0.00254891
-0.0011667
0.000263017
0.00173838
0.0032575
0.00481848
0.00641933
0.008058
0.00973239
0.0114404
0.0131797
0.0149483
0.0167438
0.0185638
0.0204062
0.0222685
0.0241483
0.0260432
0.0279507
0.0298683
0.0317936
0.033724
0.035657
0.0375901
0.0395207
0.0414462
0.0433641
0.0452718
0.0471667
0.0490463
0.050908
0.0527493
0.0545677
0.0563607
0.0581258
0.0598606
0.0615626
0.0632294
0.0648588
0.0664484
0.0679959
0.0694993
0.0709563
0.0723648
0.073723
0.0750288
0.0762804
0.0774758
0.0786135
0.0796919
0.0807094
0.0816647
0.0825564
0.0833834
0.0841444
0.0848387
0.0854653
0.0860235
0.0865129
0.0869329
0.0872834
0.0875642
0.0877754
0.0879172
0.0879899
0.0879944
0.0879312
0.0878014
0.0876063
0.0873472
0.0870257
0.0866437
0.0862033
0.0857069
0.085157
0.0845566
0.0839088
0.0832172
0.0824854
0.0817175
0.0809179
0.0800914
0.0792431
0.0783785
0.0775035
0.0766242
0.0757476
0.0748805
0.0740307
0.0732059
0.0724145
0.0716652
0.0709668
0.0703284
0.0697591
0.0692676
0.0688625
0.068551
0.0683382
0.0682281
0.0682438
0.0684009
0.000490473
0.000641239
0.000655431
0.000550188
0.000348636
5.53158e-05
-0.000324607
-0.000783823
-0.0013141
-0.00190702
-0.00255398
-0.00324633
-0.00397563
-0.00473372
-0.00551284
-0.00630554
-0.00710472
-0.00790381
-0.00869658
-0.00947721
-0.0102403
-0.010981
-0.0116944
-0.0123763
-0.0130228
-0.0136302
-0.0141951
-0.0147147
-0.015186
-0.0156066
-0.0159742
-0.0162869
-0.0165429
-0.0167406
-0.0168787
-0.0169558
-0.0169712
-0.0169241
-0.0168138
-0.0166398
-0.0164018
-0.0160998
-0.0157337
-0.0153036
-0.0148097
-0.0142525
-0.0136324
-0.01295
-0.012206
-0.0114013
-0.0105367
-0.0096133
-0.00863214
-0.00759441
-0.00650135
-0.0053543
-0.00415471
-0.00290408
-0.00160396
-0.000255951
0.00113822
0.00257677
0.00405787
0.00557967
0.00714025
0.0087376
0.0103697
0.0120345
0.0137298
0.0154536
0.0172035
0.0189774
0.0207729
0.0225878
0.0244198
0.0262664
0.0281252
0.029994
0.0318701
0.0337513
0.0356349
0.0375186
0.0393998
0.0412761
0.0431449
0.0450038
0.0468503
0.0486818
0.0504959
0.0522901
0.054062
0.0558092
0.0575293
0.0592198
0.0608784
0.0625029
0.0640908
0.0656401
0.0671485
0.0686139
0.0700343
0.0714077
0.072732
0.0740055
0.0752262
0.0763925
0.0775027
0.0785554
0.079549
0.0804823
0.0813539
0.0821628
0.0829078
0.083588
0.0842028
0.0847513
0.0852332
0.0856481
0.0859957
0.086276
0.086489
0.086635
0.0867145
0.086728
0.0866764
0.0865607
0.086382
0.0861417
0.0858416
0.0854833
0.085069
0.084601
0.0840818
0.0835144
0.0829017
0.0822472
0.0815544
0.0808275
0.0800704
0.0792879
0.0784849
0.0776666
0.0768386
0.0760068
0.0751777
0.0743577
0.0735541
0.0727741
0.0720255
0.071316
0.0706539
0.0700473
0.0695045
0.0690334
0.0686419
0.0683372
0.0681245
0.0680096
0.0680182
0.0681692
0.000930064
0.00104514
0.001032
0.000907098
0.000692902
0.000394831
1.79735e-05
-0.000430768
-0.000944018
-0.00151416
-0.0021335
-0.00279436
-0.00348903
-0.0042101
-0.0049505
-0.0057033
-0.00646196
-0.00722036
-0.00797259
-0.00871323
-0.00943715
-0.0101395
-0.010816
-0.0114625
-0.0120751
-0.0126502
-0.0131848
-0.0136758
-0.0141206
-0.0145168
-0.0148621
-0.0151546
-0.0153925
-0.0155743
-0.0156986
-0.0157643
-0.0157704
-0.0157161
-0.0156008
-0.015424
-0.0151854
-0.0148849
-0.0145224
-0.0140978
-0.0136116
-0.013064
-0.0124554
-0.0117865
-0.0110578
-0.0102703
-0.00942461
-0.00852186
-0.00756304
-0.00654928
-0.00548177
-0.00436182
-0.00319081
-0.00197019
-0.00070145
0.000613832
0.001974
0.00337733
0.00482207
0.00630639
0.00782843
0.00938626
0.0109779
0.0126014
0.0142546
0.0159355
0.0176418
0.0193714
0.0211222
0.0228918
0.024678
0.0264784
0.0282907
0.0301127
0.0319419
0.0337759
0.0356124
0.0374488
0.0392829
0.0411121
0.0429341
0.0447464
0.0465466
0.0483322
0.0501008
0.0518501
0.0535777
0.0552812
0.0569583
0.0586066
0.0602239
0.0618079
0.0633565
0.0648674
0.0663385
0.0677679
0.0691534
0.0704932
0.0717854
0.0730281
0.0742196
0.0753582
0.0764424
0.0774706
0.0784416
0.079354
0.0802065
0.0809982
0.0817279
0.0823948
0.0829983
0.0835376
0.0840124
0.0844223
0.0847671
0.0850468
0.0852614
0.0854113
0.0854969
0.0855188
0.0854778
0.0853749
0.0852114
0.0849886
0.084708
0.0843716
0.0839812
0.0835393
0.0830483
0.0825109
0.0819302
0.0813095
0.0806521
0.0799621
0.0792433
0.0785003
0.0777376
0.0769603
0.0761738
0.0753836
0.0745956
0.0738162
0.0730519
0.0723095
0.0715961
0.0709188
0.0702853
0.0697028
0.0691789
0.0687208
0.068336
0.0680312
0.0678121
0.067685
0.0676746
0.0677985
0.00149268
0.00155659
0.00150675
0.00135582
0.00112269
0.000813156
0.000432424
-1.31742e-05
-0.000516972
-0.00107209
-0.00167162
-0.0023086
-0.00297611
-0.00366742
-0.00437597
-0.00509549
-0.0058199
-0.00654344
-0.00726069
-0.00796652
-0.00865605
-0.00932477
-0.00996854
-0.0105833
-0.0111655
-0.0117118
-0.012219
-0.0126843
-0.0131051
-0.013479
-0.013804
-0.014078
-0.0142995
-0.0144667
-0.0145785
-0.0146337
-0.0146314
-0.0145706
-0.0144508
-0.0142716
-0.0140326
-0.0137336
-0.0133745
-0.0129554
-0.0124764
-0.0119379
-0.0113403
-0.0106842
-0.00997011
-0.0091988
-0.00837111
-0.00748795
-0.00655031
-0.00555927
-0.004516
-0.00342175
-0.00227786
-0.0010857
0.000153272
0.00143751
0.00276541
0.00413533
0.00554554
0.0069943
0.00847977
0.0100001
0.0115534
0.0131376
0.0147508
0.016391
0.018056
0.0197437
0.0214519
0.0231785
0.0249212
0.0266778
0.0284461
0.0302237
0.0320083
0.0337977
0.0355894
0.0373811
0.0391704
0.0409551
0.0427327
0.0445008
0.0462572
0.0479993
0.049725
0.0514318
0.0531174
0.0547796
0.056416
0.0580245
0.0596027
0.0611485
0.0626599
0.0641345
0.0655705
0.0669658
0.0683185
0.0696267
0.0708886
0.0721023
0.0732662
0.0743787
0.0754384
0.0764437
0.0773933
0.0782859
0.0791205
0.0798959
0.0806113
0.0812657
0.0818585
0.0823891
0.0828571
0.0832622
0.0836043
0.0838832
0.0840991
0.0842524
0.0843435
0.0843729
0.0843416
0.0842505
0.0841007
0.0838937
0.0836309
0.0833143
0.0829456
0.0825273
0.0820616
0.0815514
0.0809994
0.0804088
0.079783
0.0791257
0.0784408
0.0777325
0.0770051
0.0762636
0.0755128
0.0747581
0.0740052
0.0732597
0.0725279
0.071816
0.0711305
0.0704781
0.0698655
0.0692997
0.0687873
0.0683351
0.0679499
0.0676382
0.0674056
0.0672584
0.0672178
0.0672979
0.00216622
0.00216689
0.00207175
0.00188837
0.00163013
0.0013029
0.000911777
0.000462617
-3.85757e-05
-0.000585645
-0.0011723
-0.00179231
-0.00243944
-0.00310755
-0.00379062
-0.00448294
-0.00517883
-0.00587306
-0.00656051
-0.00723636
-0.00789609
-0.00853545
-0.00915043
-0.00973728
-0.0102925
-0.010813
-0.0112957
-0.011738
-0.0121371
-0.012491
-0.0127976
-0.013055
-0.0132615
-0.0134156
-0.013516
-0.0135617
-0.0135517
-0.0134851
-0.0133614
-0.0131801
-0.0129409
-0.0126434
-0.0122877
-0.0118738
-0.0114019
-0.0108721
-0.010285
-0.00964106
-0.00894077
-0.0081849
-0.00737424
-0.00650966
-0.00559209
-0.00462259
-0.00360229
-0.0025324
-0.0014142
-0.000249019
0.000961721
0.00221653
0.00351386
0.00485209
0.00622957
0.00764459
0.00909539
0.0105802
0.0120971
0.0136441
0.0152194
0.016821
0.0184467
0.0200946
0.0217626
0.0234484
0.0251499
0.026865
0.0285915
0.030327
0.0320694
0.0338165
0.0355658
0.0373151
0.0390622
0.0408046
0.0425402
0.0442666
0.0459815
0.0476826
0.0493675
0.0510341
0.0526801
0.0543033
0.0559013
0.0574721
0.0590135
0.0605233
0.0619995
0.06344
0.0648429
0.0662061
0.0675278
0.0688062
0.0700395
0.071226
0.072364
0.073452
0.0744885
0.0754722
0.0764017
0.0772758
0.0780935
0.0788536
0.0795554
0.080198
0.0807807
0.0813031
0.0817646
0.0821651
0.0825044
0.0827825
0.0829995
0.0831557
0.0832516
0.0832878
0.0832652
0.0831846
0.0830472
0.0828544
0.0826078
0.0823089
0.0819598
0.0815626
0.0811197
0.0806336
0.0801071
0.0795433
0.0789455
0.078317
0.0776617
0.0769836
0.0762868
0.0755759
0.0748557
0.074131
0.0734071
0.0726895
0.0719838
0.071296
0.0706318
0.0699974
0.0693991
0.068843
0.0683353
0.0678823
0.0674901
0.0671648
0.0669117
0.0667371
0.0666568
0.0666799
0.00293745
0.00286574
0.00271807
0.00249626
0.00220728
0.00185653
0.00144917
0.000990439
0.000485645
-5.95678e-05
-0.000639631
-0.00124891
-0.00188175
-0.00253258
-0.00319599
-0.00386665
-0.00453942
-0.00520942
-0.00587187
-0.00652231
-0.00715654
-0.00777055
-0.00836051
-0.00892293
-0.00945453
-0.00995224
-0.0104132
-0.0108349
-0.0112148
-0.0115508
-0.0118408
-0.0120832
-0.0122763
-0.0124185
-0.0125088
-0.012546
-0.0125291
-0.0124574
-0.0123302
-0.0121472
-0.011908
-0.0116122
-0.0112599
-0.0108511
-0.0103859
-0.00986449
-0.00928738
-0.00865494
-0.00796778
-0.00722656
-0.00643205
-0.00558507
-0.00468652
-0.00373743
-0.00273889
-0.00169207
-0.000598201
0.00054142
0.00172541
0.00295234
0.0042207
0.00552892
0.00687539
0.00825846
0.00967643
0.0111275
0.0126099
0.0141217
0.0156611
0.0172261
0.0188147
0.0204249
0.0220547
0.0237019
0.0253644
0.0270402
0.0287271
0.0304229
0.0321253
0.0338323
0.0355416
0.0372508
0.0389578
0.0406604
0.0423563
0.0440432
0.045719
0.0473812
0.0490277
0.0506564
0.052265
0.0538513
0.0554131
0.0569484
0.058455
0.0599309
0.061374
0.0627823
0.0641539
0.065487
0.0667796
0.06803
0.0692364
0.0703972
0.0715108
0.0725758
0.0735906
0.074554
0.0754646
0.0763212
0.077123
0.0778688
0.0785577
0.0791892
0.0797624
0.0802769
0.0807323
0.0811283
0.0814649
0.0817419
0.0819597
0.0821184
0.0822185
0.0822607
0.0822458
0.0821746
0.0820484
0.0818683
0.081636
0.0813531
0.0810214
0.080643
0.0802203
0.0797556
0.0792516
0.0787114
0.0781379
0.0775346
0.076905
0.0762528
0.0755822
0.0748973
0.0742025
0.0735026
0.0728025
0.0721072
0.0714219
0.070752
0.0701031
0.0694806
0.0688903
0.0683377
0.0678286
0.0673686
0.0669633
0.0666182
0.0663384
0.0661297
0.0660017
0.0659583
0.00379304
0.00364242
0.00343645
0.00317107
0.00284615
0.00246682
0.00203796
0.00156418
0.00105032
0.00050135
-7.77632e-05
-0.000681894
-0.00130605
-0.00194507
-0.00259408
-0.00324822
-0.00390282
-0.00455328
-0.00519526
-0.00582461
-0.00643737
-0.00702979
-0.00759831
-0.00813965
-0.00865067
-0.0091285
-0.00957042
-0.00997396
-0.0103368
-0.0106569
-0.0109323
-0.0111614
-0.0113424
-0.0114742
-0.0115554
-0.011585
-0.0115621
-0.0114859
-0.0113558
-0.0111715
-0.0109325
-0.0106385
-0.0102896
-0.00988568
-0.00942693
-0.00891359
-0.00834597
-0.00772453
-0.00704983
-0.00632252
-0.0055433
-0.00471298
-0.00383243
-0.00290266
-0.00192473
-0.000899731
0.000171128
0.00128657
0.00244527
0.00364582
0.00488677
0.0061666
0.00748375
0.00883661
0.0102235
0.0116428
0.0130925
0.014571
0.0160764
0.0176068
0.0191603
0.0207349
0.0223285
0.0239392
0.0255649
0.0272036
0.028853
0.0305112
0.032176
0.0338451
0.0355165
0.0371879
0.0388571
0.0405221
0.0421805
0.0438302
0.045469
0.0470946
0.048705
0.0502979
0.0518712
0.0534228
0.0549506
0.0564524
0.0579263
0.0593702
0.0607822
0.0621603
0.0635026
0.0648073
0.0660725
0.0672965
0.0684778
0.0696145
0.0707053
0.0717486
0.0727431
0.0736873
0.0745802
0.0754205
0.0762073
0.0769396
0.0776165
0.0782374
0.0788017
0.0793087
0.0797582
0.0801499
0.0804837
0.0807597
0.0809779
0.0811386
0.0812424
0.0812898
0.0812817
0.0812188
0.0811024
0.0809337
0.080714
0.0804452
0.0801289
0.0797671
0.079362
0.0789161
0.0784318
0.077912
0.0773597
0.076778
0.0761703
0.0755401
0.0748914
0.074228
0.0735542
0.0728743
0.0721929
0.0715146
0.0708444
0.0701871
0.0695477
0.0689315
0.0683435
0.0677889
0.0672727
0.0668002
0.0663762
0.0660057
0.0656936
0.0654452
0.0652634
0.0651463
0.00472022
0.00448621
0.00421758
0.00390426
0.00353904
0.00312657
0.00267152
0.00217798
0.0016501
0.00109232
0.000509119
-9.49556e-05
-0.000715394
-0.0013476
-0.00198708
-0.00262945
-0.0032704
-0.00390571
-0.00453142
-0.00514366
-0.00573874
-0.00631316
-0.00686362
-0.00738703
-0.00788045
-0.00834113
-0.00876653
-0.00915426
-0.00950223
-0.0098084
-0.010071
-0.0102882
-0.0104588
-0.0105812
-0.0106545
-0.0106775
-0.0106493
-0.0105693
-0.0104369
-0.0102515
-0.010013
-0.00972099
-0.00937543
-0.00897634
-0.00852385
-0.00801817
-0.00745962
-0.00684863
-0.00618576
-0.00547162
-0.00470688
-0.00389231
-0.0030288
-0.0021173
-0.00115881
-0.000154437
0.000894674
0.00198728
0.00312209
0.00429774
0.00551282
0.00676585
0.00805532
0.00937966
0.0107372
0.0121264
0.0135453
0.0149924
0.0164657
0.0179635
0.0194838
0.0210247
0.0225843
0.0241606
0.0257515
0.0273551
0.0289693
0.030592
0.0322212
0.0338547
0.0354904
0.0371261
0.0387598
0.0403893
0.0420125
0.0436271
0.0452311
0.0468223
0.0483987
0.049958
0.0514982
0.0530172
0.0545129
0.0559834
0.0574265
0.0588405
0.0602233
0.061573
0.0628877
0.0641658
0.0654054
0.0666047
0.0677623
0.0688766
0.0699459
0.070969
0.0719443
0.0728707
0.0737469
0.074572
0.0753448
0.0760644
0.0767301
0.0773411
0.0778968
0.0783968
0.0788407
0.0792282
0.0795592
0.0798339
0.0800523
0.0802147
0.0803215
0.0803734
0.0803711
0.0803155
0.0802077
0.0800488
0.0798404
0.0795838
0.0792809
0.0789335
0.0785439
0.0781141
0.0776468
0.0771445
0.0766101
0.0760467
0.0754574
0.0748456
0.0742148
0.0735688
0.0729116
0.0722472
0.0715798
0.0709139
0.0702537
0.069604
0.0689692
0.068354
0.0677632
0.0672014
0.0666731
0.0661831
0.0657355
0.0653348
0.0649857
0.0646929
0.0644525
0.0642569
0.00570697
0.00538671
0.00505224
0.00468762
0.00427836
0.00382882
0.00334355
0.002826
0.00227974
0.0017087
0.00111687
0.000508247
-0.000112999
-0.000742862
-0.00137728
-0.0020122
-0.00264367
-0.00326792
-0.00388125
-0.00448009
-0.00506103
-0.00562082
-0.0061564
-0.00666486
-0.00714347
-0.0075896
-0.00800088
-0.00837511
-0.00871025
-0.00900437
-0.00925574
-0.00946283
-0.00962422
-0.00973864
-0.00980497
-0.00982226
-0.00978965
-0.00970645
-0.00957212
-0.00938621
-0.00914838
-0.00885842
-0.00851624
-0.00812187
-0.00767541
-0.00717706
-0.00662716
-0.00602612
-0.00537447
-0.00467278
-0.00392173
-0.00312206
-0.00227464
-0.00138037
-0.00044024
0.000544689
0.00157329
0.00264436
0.00375666
0.00490884
0.00609954
0.00732733
0.00859072
0.00988818
0.0112181
0.0125789
0.0139688
0.0153863
0.0168294
0.0182964
0.0197855
0.0212947
0.0228222
0.024366
0.0259243
0.0274949
0.0290759
0.0306652
0.0322609
0.0338609
0.035463
0.0370653
0.0386655
0.0402617
0.0418517
0.0434335
0.0450049
0.0465638
0.0481082
0.049636
0.0511451
0.0526335
0.0540993
0.0555403
0.0569547
0.0583406
0.059696
0.0610192
0.0623082
0.0635614
0.0647769
0.0659533
0.0670888
0.068182
0.0692313
0.0702354
0.0711929
0.0721026
0.0729634
0.0737741
0.0745338
0.0752416
0.0758967
0.0764984
0.0770461
0.0775394
0.0779779
0.0783614
0.0786897
0.078963
0.0791813
0.0793449
0.0794542
0.0795099
0.0795126
0.0794633
0.0793628
0.0792125
0.0790136
0.0787677
0.0784763
0.0781414
0.0777648
0.0773489
0.0768959
0.0764084
0.075889
0.0753407
0.0747665
0.0741694
0.0735529
0.0729206
0.0722759
0.0716228
0.0709652
0.0703071
0.0696525
0.0690057
0.0683708
0.0677521
0.0671538
0.0665802
0.0660354
0.0655233
0.065048
0.0646129
0.0642228
0.0638819
0.0635794
0.0633019
0.00674247
0.00633413
0.00593167
0.0055131
0.00505676
0.00456688
0.00404789
0.0035026
0.00293414
0.00234587
0.00174134
0.00112414
0.000497896
-0.000133719
-0.000767063
-0.00139845
-0.00202434
-0.00264126
-0.00324582
-0.00383471
-0.00440481
-0.00495312
-0.0054768
-0.00597314
-0.00643954
-0.00687359
-0.00727306
-0.00763592
-0.00796017
-0.00824404
-0.00848589
-0.00868426
-0.00883783
-0.00894539
-0.00900587
-0.00901835
-0.00898203
-0.00889626
-0.00876053
-0.00857438
-0.00833751
-0.00804972
-0.00771093
-0.00732118
-0.00688053
-0.00638922
-0.00584756
-0.00525597
-0.00461494
-0.00392502
-0.0031869
-0.0024013
-0.00156904
-0.000691009
0.000231831
0.00119845
0.00220775
0.00325857
0.00434969
0.00547981
0.00664758
0.00785162
0.00909049
0.0103627
0.0116666
0.0130008
0.0143634
0.015753
0.0171677
0.0186059
0.0200656
0.021545
0.0230424
0.0245558
0.0260832
0.0276229
0.0291727
0.0307308
0.0322951
0.0338636
0.0354342
0.0370051
0.038574
0.040139
0.041698
0.0432489
0.0447897
0.0463184
0.0478329
0.0493312
0.0508113
0.0522711
0.0537088
0.0551224
0.05651
0.0578696
0.0591996
0.0604979
0.061763
0.0629929
0.0641861
0.0653409
0.0664559
0.0675294
0.0685601
0.0695466
0.0704875
0.0713817
0.072228
0.0730254
0.0737729
0.0744696
0.0751148
0.0757078
0.0762481
0.076735
0.0771684
0.0775479
0.0778735
0.0781453
0.0783633
0.0785277
0.0786391
0.0786979
0.0787048
0.0786607
0.0785665
0.0784235
0.0782327
0.0779958
0.0777142
0.0773897
0.0770242
0.0766198
0.0761787
0.0757033
0.0751962
0.0746601
0.0740977
0.0735122
0.0729065
0.0722842
0.0716484
0.0710028
0.0703509
0.0696965
0.0690433
0.0683952
0.0677561
0.0671296
0.0665198
0.0659303
0.0653648
0.064827
0.0643201
0.0638472
0.0634127
0.0630209
0.0626537
0.0622922
0.00781677
0.00731946
0.00684743
0.00637293
0.00586719
0.00533424
0.0047785
0.00420231
0.00360827
0.00299929
0.00237846
0.00174902
0.00111407
0.000477011
-0.000158898
-0.000790393
-0.00141424
-0.00202726
-0.00262636
-0.00320851
-0.00377085
-0.00431062
-0.00482519
-0.00531202
-0.00576869
-0.00619299
-0.00658286
-0.00693634
-0.00725157
-0.00752689
-0.00776079
-0.00795188
-0.00809889
-0.00820071
-0.00825633
-0.00826486
-0.00822556
-0.00813783
-0.00800116
-0.00781512
-0.00757944
-0.00729394
-0.00695857
-0.00657331
-0.00613828
-0.0056537
-0.0051199
-0.00453727
-0.00390628
-0.00322749
-0.00250156
-0.0017292
-0.000911206
-4.84412e-05
0.000858148
0.00180756
0.00279875
0.00383057
0.00490181
0.00601122
0.00715748
0.00833926
0.00955512
0.0108036
0.0120832
0.0133923
0.0147294
0.0160929
0.017481
0.0188921
0.0203243
0.0217758
0.0232449
0.0247297
0.0262284
0.0277391
0.0292597
0.0307885
0.0323234
0.0338625
0.0354038
0.0369452
0.0384849
0.0400207
0.0415506
0.0430728
0.0445851
0.0460856
0.0475722
0.049043
0.050496
0.0519292
0.0533408
0.0547288
0.0560914
0.0574266
0.0587328
0.0600082
0.0612509
0.0624592
0.0636316
0.0647665
0.0658624
0.0669177
0.0679311
0.0689012
0.0698268
0.0707065
0.0715394
0.0723244
0.0730606
0.0737471
0.0743831
0.074968
0.0755011
0.0759821
0.0764106
0.0767864
0.0771094
0.0773795
0.0775969
0.0777618
0.0778747
0.077936
0.0779463
0.0779066
0.0778176
0.0776806
0.0774966
0.0772672
0.0769937
0.0766778
0.0763213
0.0759263
0.0754948
0.0750291
0.0745316
0.0740049
0.0734515
0.0728744
0.0722764
0.0716607
0.0710303
0.0703886
0.0697388
0.0690845
0.068429
0.0677758
0.0671285
0.0664906
0.0658654
0.0652564
0.0646669
0.0640999
0.0635582
0.0630445
0.0625632
0.0621181
0.0616844
0.0612377
0.0089208
0.00833427
0.00779173
0.00725988
0.00670286
0.00612461
0.00552964
0.00491981
0.00429724
0.0036645
0.00302422
0.00237917
0.00173227
0.00108644
0.000444628
-0.000190262
-0.000815273
-0.00142755
-0.00202425
-0.00260262
-0.00316008
-0.00369406
-0.00420209
-0.00468184
-0.00513113
-0.00554789
-0.00593021
-0.00627618
-0.00658417
-0.00685257
-0.00707999
-0.00726515
-0.00740683
-0.007504
-0.00755569
-0.00756108
-0.0075195
-0.00743038
-0.0072932
-0.00710761
-0.00687335
-0.00659027
-0.00625829
-0.00587744
-0.00544784
-0.00496971
-0.00444339
-0.00386923
-0.00324772
-0.00257942
-0.00186496
-0.00110503
-0.00030042
0.000548024
0.00143938
0.0023727
0.00334693
0.00436095
0.00541358
0.00650361
0.00762976
0.0087907
0.00998504
0.0112114
0.0124682
0.0137539
0.0150672
0.0164062
0.0177695
0.0191552
0.0205617
0.0219872
0.0234299
0.0248881
0.0263599
0.0278434
0.0293369
0.0308383
0.0323458
0.0338575
0.0353713
0.0368854
0.0383978
0.0399064
0.0414094
0.0429048
0.0443906
0.0458648
0.0473255
0.0487707
0.0501985
0.0516071
0.0529944
0.0543587
0.055698
0.0570107
0.0582949
0.0595489
0.0607709
0.0619593
0.0631125
0.0642289
0.0653071
0.0663456
0.067343
0.068298
0.0692094
0.0700758
0.0708964
0.0716699
0.0723956
0.0730726
0.0737001
0.0742774
0.074804
0.0752794
0.0757033
0.0760755
0.0763958
0.0766642
0.0768809
0.077046
0.0771598
0.077223
0.0772361
0.0771998
0.0771151
0.0769829
0.0768045
0.0765811
0.0763141
0.0760051
0.0756558
0.0752681
0.0748441
0.0743857
0.0738954
0.0733755
0.0728284
0.0722569
0.0716636
0.0710514
0.0704232
0.069782
0.0691311
0.0684733
0.0678121
0.0671504
0.0664916
0.0658388
0.0651951
0.0645633
0.0639466
0.0633475
0.0627684
0.0622115
0.0616811
0.0611811
0.0606799
0.0601476
0.0100463
0.00937076
0.00875729
0.00816702
0.00755729
0.00693201
0.00629574
0.00564993
0.00499634
0.0043371
0.00367455
0.00301105
0.00234923
0.00169164
0.0010409
0.00039964
-0.000229487
-0.000843894
-0.001441
-0.00201835
-0.00257357
-0.00310426
-0.00360815
-0.00408314
-0.00452724
-0.00493853
-0.00531516
-0.00565545
-0.00595782
-0.00622086
-0.00644322
-0.0066237
-0.00676121
-0.00685473
-0.00690338
-0.00690642
-0.00686322
-0.00677323
-0.00663598
-0.00645115
-0.00621852
-0.00593795
-0.00560937
-0.00523282
-0.00480847
-0.00433652
-0.00381728
-0.00325114
-0.00263857
-0.00198012
-0.0012764
-0.000528121
0.000263966
0.00109902
0.00197616
0.00289444
0.00385283
0.00485024
0.00588551
0.00695747
0.00806486
0.00920638
0.0103807
0.0115863
0.0128219
0.0140859
0.0153769
0.0166932
0.0180332
0.0193954
0.0207779
0.0221791
0.0235973
0.0250307
0.0264775
0.0279359
0.0294041
0.0308801
0.0323621
0.0338483
0.0353367
0.0368253
0.0383123
0.0397958
0.0412737
0.0427443
0.0442055
0.0456554
0.0470921
0.0485136
0.0499182
0.0513039
0.0526688
0.0540112
0.0553292
0.056621
0.0578849
0.0591192
0.0603222
0.0614922
0.0626277
0.0637271
0.0647891
0.0658121
0.0667948
0.0677359
0.0686342
0.0694884
0.0702976
0.0710606
0.0717767
0.0724449
0.0730645
0.0736349
0.0741554
0.0746256
0.0750452
0.0754139
0.0757316
0.0759983
0.076214
0.0763789
0.0764934
0.0765579
0.076573
0.0765394
0.076458
0.0763296
0.0761555
0.0759368
0.0756748
0.0753711
0.0750273
0.0746451
0.0742264
0.0737733
0.0732878
0.0727723
0.0722289
0.0716603
0.0710689
0.0704574
0.0698284
0.0691849
0.0685296
0.0678655
0.0671953
0.0665221
0.0658487
0.065178
0.0645127
0.0638555
0.0632088
0.0625751
0.0619564
0.0613543
0.0607733
0.0602171
0.0596477
0.0590298
0.0111855
0.0104218
0.00973726
0.00908791
0.00842444
0.00775073
0.00707145
0.00638775
0.00570098
0.00501288
0.00432556
0.00364111
0.00296172
0.00228969
0.00162732
0.000977
0.000341092
-0.000278068
-0.000878187
-0.00145705
-0.00201243
-0.00254213
-0.00304413
-0.00351653
-0.00395747
-0.00436517
-0.00473791
-0.0050742
-0.00537253
-0.00563162
-0.00585024
-0.00602726
-0.00616165
-0.00625247
-0.00629894
-0.00630037
-0.00625617
-0.0061658
-0.00602887
-0.00584511
-0.00561431
-0.00533632
-0.00501113
-0.0046388
-0.00421949
-0.00375342
-0.0032409
-0.00268232
-0.00207814
-0.00142891
-0.000735252
2.15611e-06
0.000782554
0.00160513
0.00246903
0.00337332
0.00431698
0.00529894
0.00631808
0.00737325
0.00846321
0.00958667
0.0107423
0.0119288
0.0131446
0.0143885
0.0156587
0.016954
0.0182725
0.0196128
0.0209731
0.0223518
0.0237472
0.0251577
0.0265813
0.0280164
0.0294611
0.0309136
0.0323721
0.0338347
0.0352995
0.0367646
0.0382282
0.0396884
0.0411432
0.0425909
0.0440294
0.0454568
0.0468714
0.0482712
0.0496544
0.0510191
0.0523634
0.0536856
0.0549839
0.0562566
0.0575019
0.0587181
0.0599036
0.0610568
0.0621761
0.0632601
0.0643072
0.065316
0.0662853
0.0672137
0.0681001
0.0689431
0.0697419
0.0704954
0.0712027
0.0718629
0.0724753
0.0730393
0.0735542
0.0740196
0.0744351
0.0748006
0.0751157
0.0753806
0.0755952
0.0757597
0.0758744
0.0759397
0.0759562
0.0759246
0.0758456
0.0757201
0.0755491
0.0753338
0.0750755
0.0747756
0.0744355
0.074057
0.0736419
0.073192
0.0727092
0.0721958
0.0716538
0.0710856
0.0704935
0.0698801
0.0692477
0.068599
0.0679366
0.0672632
0.0665814
0.0658938
0.0652031
0.0645118
0.0638223
0.0631371
0.0624582
0.0617878
0.0611276
0.0604787
0.0598458
0.0592327
0.0585948
0.0578918
0.0123318
0.0114806
0.0107253
0.0100165
0.00929857
0.00857535
0.00785173
0.00712848
0.00640664
0.00568775
0.00497353
0.00426583
0.00356654
0.00287768
0.00220128
0.00153948
0.000894379
0.000268044
-0.000337467
-0.000920106
-0.00147783
-0.0020087
-0.00251092
-0.0029827
-0.00342235
-0.00382821
-0.00419876
-0.00453258
-0.00482836
-0.00508486
-0.00530097
-0.00547563
-0.00560789
-0.00569693
-0.00574202
-0.00574252
-0.00569786
-0.00560759
-0.00547137
-0.00528894
-0.00506013
-0.0047848
-0.00446299
-0.00409477
-0.0036803
-0.00321981
-0.00271363
-0.00216215
-0.00156583
-0.000925216
-0.000240923
0.000486359
0.0012559
0.00206691
0.00291853
0.00380985
0.00473986
0.00570751