/*--------------------------------*- C++ -*----------------------------------*\
  =========                 |
  \\      /  F ield         | OpenFOAM: The Open Source CFD Toolbox
   \\    /   O peration     | Website:  https://openfoam.org
    \\  /    A nd           | Version:  7
     \\/     M anipulation  |
\*---------------------------------------------------------------------------*/
FoamFile
{
    version     2.0;
    format      ascii;
    class       surfaceScalarField;
    location    "0.175";
    object      phi;
}
// * * * * * * * * * * * * * * * * * * * * * * * * * * * * * * * * * * * * * //

dimensions      [0 3 -1 0 0 0 0];

internalField   nonuniform List<scalar> 
50880
(
6.07529e-12
-6.06357e-12
3.51439e-11
-2.90728e-11
7.9938e-11
-4.47946e-11
1.29457e-10
-4.95165e-11
1.76592e-10
-4.7134e-11
2.16326e-10
-3.97418e-11
2.45233e-10
-2.89014e-11
2.60992e-10
-1.57609e-11
2.62093e-10
-1.10215e-12
2.47582e-10
1.45092e-11
2.16911e-10
3.06785e-11
1.69806e-10
4.71005e-11
1.06247e-10
6.35599e-11
2.63614e-11
7.98828e-11
-6.95787e-11
9.59404e-11
-1.81207e-10
1.11633e-10
-3.08087e-10
1.26879e-10
-4.49706e-10
1.41624e-10
-6.05525e-10
1.55814e-10
-7.74942e-10
1.69417e-10
-9.5735e-10
1.82409e-10
-1.15211e-09
1.94762e-10
-1.35858e-09
2.06467e-10
-1.57609e-09
2.17514e-10
-1.80398e-09
2.27887e-10
-2.04157e-09
2.37588e-10
-2.28819e-09
2.46618e-10
-2.54316e-09
2.5497e-10
-2.8058e-09
2.62652e-10
-3.07547e-09
2.69664e-10
-3.35148e-09
2.76017e-10
-3.63319e-09
2.81708e-10
-3.91994e-09
2.86753e-10
-4.2111e-09
2.91156e-10
-4.50604e-09
2.94929e-10
-4.80412e-09
2.98085e-10
-5.10475e-09
3.00629e-10
-5.40733e-09
3.02571e-10
-5.71125e-09
3.03925e-10
-6.01595e-09
3.04701e-10
-6.32086e-09
3.0491e-10
-6.62542e-09
3.04562e-10
-6.92909e-09
3.03672e-10
-7.23134e-09
3.02251e-10
-7.53165e-09
3.00309e-10
-7.82951e-09
2.97861e-10
-8.12444e-09
2.94923e-10
-8.41595e-09
2.91506e-10
-8.70357e-09
2.87622e-10
-8.98685e-09
2.83283e-10
-9.26535e-09
2.78502e-10
-9.53864e-09
2.73291e-10
-9.8063e-09
2.67662e-10
-1.00679e-08
2.61631e-10
-1.03231e-08
2.55215e-10
-1.05716e-08
2.48422e-10
-1.08128e-08
2.41265e-10
-1.10466e-08
2.33758e-10
-1.12725e-08
2.25916e-10
-1.14903e-08
2.1775e-10
-1.16995e-08
2.09271e-10
-1.19e-08
2.00495e-10
-1.20915e-08
1.91436e-10
-1.22736e-08
1.82108e-10
-1.24461e-08
1.72525e-10
-1.26088e-08
1.627e-10
-1.27614e-08
1.52646e-10
-1.29038e-08
1.42378e-10
-1.30357e-08
1.31907e-10
-1.3157e-08
1.21249e-10
-1.32674e-08
1.10418e-10
-1.33668e-08
9.94291e-11
-1.34551e-08
8.82953e-11
-1.35321e-08
7.70295e-11
-1.35978e-08
6.56468e-11
-1.3652e-08
5.41628e-11
-1.36945e-08
4.25926e-11
-1.37255e-08
3.09506e-11
-1.37447e-08
1.92518e-11
-1.37523e-08
7.51132e-12
-1.3748e-08
-4.25579e-12
-1.3732e-08
-1.60346e-11
-1.37042e-08
-2.781e-11
-1.36646e-08
-3.95663e-11
-1.36133e-08
-5.12871e-11
-1.35503e-08
-6.29563e-11
-1.34758e-08
-7.45579e-11
-1.33897e-08
-8.60754e-11
-1.32922e-08
-9.74928e-11
-1.31834e-08
-1.08793e-10
-1.30635e-08
-1.19961e-10
-1.29325e-08
-1.3098e-10
-1.27907e-08
-1.41834e-10
-1.26382e-08
-1.52504e-10
-1.24752e-08
-1.62971e-10
-1.2302e-08
-1.7322e-10
-1.21187e-08
-1.83236e-10
-1.19257e-08
-1.93001e-10
-1.17232e-08
-2.02497e-10
-1.15115e-08
-2.11708e-10
-1.12909e-08
-2.20615e-10
-1.10617e-08
-2.29203e-10
-1.08243e-08
-2.37455e-10
-1.05789e-08
-2.45353e-10
-1.0326e-08
-2.52881e-10
-1.0066e-08
-2.60022e-10
-9.79924e-09
-2.6676e-10
-9.52616e-09
-2.73076e-10
-9.24721e-09
-2.78956e-10
-8.96282e-09
-2.84384e-10
-8.67348e-09
-2.89346e-10
-8.37965e-09
-2.93825e-10
-8.08185e-09
-2.97806e-10
-7.78058e-09
-3.01274e-10
-7.47636e-09
-3.04215e-10
-7.16974e-09
-3.06615e-10
-6.86128e-09
-3.0846e-10
-6.55154e-09
-3.09738e-10
-6.2411e-09
-3.10437e-10
-5.93056e-09
-3.10545e-10
-5.62051e-09
-3.10049e-10
-5.31157e-09
-3.08938e-10
-5.00437e-09
-3.07203e-10
-4.69953e-09
-3.04835e-10
-4.39771e-09
-3.01825e-10
-4.09954e-09
-2.98164e-10
-3.8057e-09
-2.93845e-10
-3.51683e-09
-2.88863e-10
-3.23362e-09
-2.83214e-10
-2.95672e-09
-2.76893e-10
-2.68683e-09
-2.69898e-10
-2.4246e-09
-2.62226e-10
-2.17072e-09
-2.5388e-10
-1.92586e-09
-2.44862e-10
-1.69069e-09
-2.35177e-10
-1.46586e-09
-2.2483e-10
-1.25203e-09
-2.13829e-10
-1.04985e-09
-2.02184e-10
-8.59933e-10
-1.89912e-10
-6.82901e-10
-1.77031e-10
-5.19335e-10
-1.63565e-10
-3.69793e-10
-1.49543e-10
-2.34793e-10
-1.35e-10
-1.14809e-10
-1.19983e-10
-1.02624e-11
-1.04546e-10
7.8495e-11
-8.87564e-11
1.51197e-10
-7.27015e-11
2.07686e-10
-5.64883e-11
2.4794e-10
-4.0253e-11
2.72113e-10
-2.41711e-11
2.80585e-10
-8.47113e-12
2.74043e-10
6.54383e-12
2.53577e-10
2.0467e-11
2.20835e-10
3.2743e-11
1.78241e-10
4.25948e-11
1.29306e-10
4.89345e-11
7.9034e-11
5.02709e-11
3.44867e-11
4.45466e-11
5.31465e-12
2.91721e-11
5.31417e-12
3.10417e-11
-3.71023e-11
1.01964e-10
-9.9991e-11
1.95507e-10
-1.38338e-10
2.95278e-10
-1.49286e-10
3.86724e-10
-1.38575e-10
4.58601e-10
-1.11611e-10
5.02455e-10
-7.27595e-11
5.12124e-10
-2.54211e-11
4.83208e-10
2.78069e-11
4.1273e-10
8.49871e-11
2.98773e-10
1.44631e-10
1.40262e-10
2.05617e-10
-6.32388e-11
2.67062e-10
-3.11645e-10
3.28289e-10
-6.04474e-10
3.8877e-10
-9.40932e-10
4.48081e-10
-1.31995e-09
5.05904e-10
-1.74029e-09
5.61966e-10
-2.20055e-09
6.16062e-10
-2.69916e-09
6.6804e-10
-3.23452e-09
7.17763e-10
-3.8049e-09
7.65139e-10
-4.40852e-09
8.10094e-10
-5.04358e-09
8.52567e-10
-5.70822e-09
8.92521e-10
-6.40056e-09
9.29931e-10
-7.11873e-09
9.6478e-10
-7.86082e-09
9.97056e-10
-8.62494e-09
1.02677e-09
-9.4092e-09
1.05392e-09
-1.02117e-08
1.07853e-09
-1.10306e-08
1.10062e-09
-1.18641e-08
1.12021e-09
-1.27103e-08
1.13733e-09
-1.35673e-08
1.152e-09
-1.44335e-08
1.16428e-09
-1.53071e-08
1.17418e-09
-1.61863e-08
1.18175e-09
-1.70694e-08
1.18704e-09
-1.79547e-08
1.19008e-09
-1.88407e-08
1.1909e-09
-1.97258e-08
1.18957e-09
-2.06082e-08
1.18612e-09
-2.14866e-08
1.18061e-09
-2.23593e-08
1.17307e-09
-2.3225e-08
1.16355e-09
-2.40822e-08
1.15211e-09
-2.49295e-08
1.13879e-09
-2.57655e-08
1.12364e-09
-2.65889e-08
1.10672e-09
-2.73985e-08
1.08807e-09
-2.8193e-08
1.06774e-09
-2.89711e-08
1.04578e-09
-2.97317e-08
1.02225e-09
-3.04737e-08
9.97195e-10
-3.11959e-08
9.70663e-10
-3.18974e-08
9.42708e-10
-3.2577e-08
9.13381e-10
-3.32338e-08
8.82736e-10
-3.38669e-08
8.50822e-10
-3.44753e-08
8.17693e-10
-3.50582e-08
7.83402e-10
-3.56148e-08
7.48e-10
-3.61442e-08
7.1154e-10
-3.66458e-08
6.74077e-10
-3.71187e-08
6.35664e-10
-3.75624e-08
5.96357e-10
-3.79763e-08
5.56208e-10
-3.83596e-08
5.15271e-10
-3.8712e-08
4.736e-10
-3.90328e-08
4.31252e-10
-3.93217e-08
3.88281e-10
-3.95781e-08
3.44743e-10
-3.98018e-08
3.00694e-10
-3.99923e-08
2.56191e-10
-4.01495e-08
2.11294e-10
-4.02729e-08
1.66059e-10
-4.03625e-08
1.20545e-10
-4.04181e-08
7.48105e-11
-4.04395e-08
2.89162e-11
-4.04267e-08
-1.70801e-11
-4.03796e-08
-6.31197e-11
-4.02982e-08
-1.09141e-10
-4.01827e-08
-1.55082e-10
-4.00331e-08
-2.00879e-10
-3.98496e-08
-2.46471e-10
-3.96324e-08
-2.91794e-10
-3.93817e-08
-3.36786e-10
-3.90978e-08
-3.81382e-10
-3.87811e-08
-4.25517e-10
-3.84319e-08
-4.69129e-10
-3.80507e-08
-5.12152e-10
-3.7638e-08
-5.5452e-10
-3.71944e-08
-5.96167e-10
-3.67203e-08
-6.37024e-10
-3.62165e-08
-6.77024e-10
-3.56836e-08
-7.16104e-10
-3.51225e-08
-7.54199e-10
-3.45337e-08
-7.9124e-10
-3.39183e-08
-8.27161e-10
-3.3277e-08
-8.61897e-10
-3.26108e-08
-8.9538e-10
-3.19207e-08
-9.27547e-10
-3.12077e-08
-9.5833e-10
-3.04729e-08
-9.87664e-10
-2.97175e-08
-1.01548e-09
-2.89425e-08
-1.04173e-09
-2.81493e-08
-1.06633e-09
-2.7339e-08
-1.08922e-09
-2.6513e-08
-1.11035e-09
-2.56727e-08
-1.12966e-09
-2.48195e-08
-1.14708e-09
-2.39547e-08
-1.16257e-09
-2.30799e-08
-1.17605e-09
-2.21966e-08
-1.18749e-09
-2.13064e-08
-1.19681e-09
-2.04109e-08
-1.20398e-09
-1.95117e-08
-1.20894e-09
-1.86105e-08
-1.21164e-09
-1.7709e-08
-1.21205e-09
-1.6809e-08
-1.21011e-09
-1.59121e-08
-1.20579e-09
-1.50203e-08
-1.19905e-09
-1.41352e-08
-1.18986e-09
-1.32589e-08
-1.17818e-09
-1.2393e-08
-1.16399e-09
-1.15396e-08
-1.14725e-09
-1.07005e-08
-1.12796e-09
-9.87765e-09
-1.1061e-09
-9.0729e-09
-1.08165e-09
-8.28818e-09
-1.05461e-09
-7.52543e-09
-1.02498e-09
-6.78653e-09
-9.92775e-10
-6.07339e-09
-9.58003e-10
-5.38787e-09
-9.20689e-10
-4.73184e-09
-8.80863e-10
-4.1071e-09
-8.38567e-10
-3.51543e-09
-7.93853e-10
-2.95856e-09
-7.4679e-10
-2.43812e-09
-6.97462e-10
-1.95571e-09
-6.45977e-10
-1.51279e-09
-5.92461e-10
-1.11072e-09
-5.37073e-10
-7.50695e-10
-4.80006e-10
-4.33745e-10
-4.21494e-10
-1.60673e-10
-3.61827e-10
6.7986e-11
-3.01361e-10
2.52034e-10
-2.40537e-10
3.91687e-10
-1.79907e-10
4.87684e-10
-1.20168e-10
5.4142e-10
-6.22067e-11
5.55126e-10
-7.16249e-12
5.32102e-10
4.349e-11
4.77017e-10
8.78276e-11
3.96283e-10
1.23329e-10
2.98501e-10
1.46718e-10
1.94908e-10
1.53867e-10
9.9628e-11
1.39827e-10
2.91176e-11
9.96815e-11
3.44323e-11
4.47307e-11
-8.18337e-11
1.39169e-10
-1.94425e-10
2.55996e-10
-2.5517e-10
3.74e-10
-2.67285e-10
4.74931e-10
-2.39514e-10
5.43954e-10
-1.80641e-10
5.69396e-10
-9.82021e-11
5.42321e-10
1.65154e-12
4.56118e-10
1.14019e-10
3.06049e-10
2.35049e-10
8.89518e-11
3.61737e-10
-1.97134e-10
4.91695e-10
-5.5313e-10
6.23061e-10
-9.7918e-10
7.54344e-10
-1.47477e-09
8.8436e-10
-2.03887e-09
1.01218e-09
-2.67001e-09
1.13704e-09
-3.36638e-09
1.25833e-09
-4.1259e-09
1.37559e-09
-4.94628e-09
1.48842e-09
-5.82503e-09
1.59651e-09
-6.75951e-09
1.69963e-09
-7.747e-09
1.79758e-09
-8.78467e-09
1.89024e-09
-9.86963e-09
1.97748e-09
-1.09989e-08
2.05923e-09
-1.21696e-08
2.13545e-09
-1.33786e-08
2.20611e-09
-1.46231e-08
2.27119e-09
-1.58998e-08
2.3307e-09
-1.7206e-08
2.38467e-09
-1.85385e-08
2.43314e-09
-1.98944e-08
2.47614e-09
-2.12708e-08
2.51374e-09
-2.26648e-08
2.546e-09
-2.40735e-08
2.57298e-09
-2.54941e-08
2.59475e-09
-2.69238e-08
2.61142e-09
-2.83598e-08
2.62304e-09
-2.97994e-08
2.62972e-09
-3.124e-08
2.63154e-09
-3.26791e-08
2.6286e-09
-3.41139e-08
2.62098e-09
-3.55421e-08
2.60881e-09
-3.69612e-08
2.59217e-09
-3.83689e-08
2.57118e-09
-3.97627e-08
2.54594e-09
-4.11404e-08
2.51654e-09
-4.24999e-08
2.48311e-09
-4.38389e-08
2.44574e-09
-4.51554e-08
2.40456e-09
-4.64473e-08
2.35966e-09
-4.77127e-08
2.31116e-09
-4.89496e-08
2.25918e-09
-5.01563e-08
2.20382e-09
-5.13308e-08
2.1452e-09
-5.24715e-08
2.08343e-09
-5.35768e-08
2.01862e-09
-5.46449e-08
1.95089e-09
-5.56744e-08
1.88035e-09
-5.66639e-08
1.80712e-09
-5.76118e-08
1.73132e-09
-5.85168e-08
1.65306e-09
-5.93778e-08
1.57245e-09
-6.01933e-08
1.48963e-09
-6.09623e-08
1.40471e-09
-6.16838e-08
1.3178e-09
-6.23566e-08
1.22902e-09
-6.29798e-08
1.13851e-09
-6.35526e-08
1.04637e-09
-6.40741e-08
9.52734e-10
-6.45435e-08
8.5772e-10
-6.49602e-08
7.61452e-10
-6.53236e-08
6.64058e-10
-6.56331e-08
5.65664e-10
-6.58882e-08
4.66398e-10
-6.60885e-08
3.66387e-10
-6.62337e-08
2.65763e-10
-6.63236e-08
1.64657e-10
-6.63579e-08
6.31983e-11
-6.63365e-08
-3.84814e-11
-6.62593e-08
-1.4025e-10
-6.61265e-08
-2.41971e-10
-6.59381e-08
-3.43506e-10
-6.56942e-08
-4.4472e-10
-6.53952e-08
-5.45473e-10
-6.50414e-08
-6.45626e-10
-6.46331e-08
-7.45038e-10
-6.4171e-08
-8.43568e-10
-6.36554e-08
-9.41074e-10
-6.30871e-08
-1.03741e-09
-6.24668e-08
-1.13245e-09
-6.17953e-08
-1.22602e-09
-6.10735e-08
-1.31799e-09
-6.03023e-08
-1.40821e-09
-5.94828e-08
-1.49654e-09
-5.86161e-08
-1.58282e-09
-5.77034e-08
-1.66692e-09
-5.67459e-08
-1.74869e-09
-5.57451e-08
-1.82797e-09
-5.47024e-08
-1.90463e-09
-5.36192e-08
-1.97852e-09
-5.24973e-08
-2.04949e-09
-5.13382e-08
-2.1174e-09
-5.01438e-08
-2.18211e-09
-4.89158e-08
-2.24347e-09
-4.76562e-08
-2.30135e-09
-4.63669e-08
-2.3556e-09
-4.50501e-08
-2.40608e-09
-4.37077e-08
-2.45267e-09
-4.23422e-08
-2.49523e-09
-4.09556e-08
-2.53364e-09
-3.95504e-08
-2.56777e-09
-3.8129e-08
-2.59749e-09
-3.66938e-08
-2.62268e-09
-3.52473e-08
-2.64324e-09
-3.37923e-08
-2.65904e-09
-3.23313e-08
-2.66997e-09
-3.08669e-08
-2.67595e-09
-2.94021e-08
-2.67687e-09
-2.79396e-08
-2.67264e-09
-2.64822e-08
-2.66318e-09
-2.50329e-08
-2.6484e-09
-2.35945e-08
-2.62824e-09
-2.217e-08
-2.60262e-09
-2.07625e-08
-2.57149e-09
-1.9375e-08
-2.53481e-09
-1.80104e-08
-2.49253e-09
-1.66719e-08
-2.44462e-09
-1.53625e-08
-2.39108e-09
-1.40852e-08
-2.33189e-09
-1.28431e-08
-2.26707e-09
-1.16392e-08
-2.19664e-09
-1.04766e-08
-2.12064e-09
-9.35815e-09
-2.03914e-09
-8.28679e-09
-1.95222e-09
-7.26539e-09
-1.85997e-09
-6.29671e-09
-1.76253e-09
-5.38342e-09
-1.66008e-09
-4.52807e-09
-1.55281e-09
-3.73307e-09
-1.44098e-09
-3.00064e-09
-1.32489e-09
-2.33281e-09
-1.2049e-09
-1.73133e-09
-1.08148e-09
-1.19767e-09
-9.55158e-10
-7.32897e-10
-8.26598e-10
-3.3765e-10
-6.96607e-10
-1.20115e-11
-5.66173e-10
2.44601e-10
-4.36518e-10
4.33589e-10
-3.09154e-10
5.57359e-10
-1.85975e-10
6.19554e-10
-6.93564e-11
6.25335e-10
3.77088e-11
5.81719e-10
1.31442e-10
4.97958e-10
2.07089e-10
3.85933e-10
2.58742e-10
2.60511e-10
2.7929e-10
1.39688e-10
2.60649e-10
4.44417e-11
1.94928e-10
7.88746e-11
4.9528e-11
-1.31364e-10
1.49919e-10
-2.94806e-10
2.68276e-10
-3.73523e-10
3.79552e-10
-3.78559e-10
4.62992e-10
-3.22948e-10
5.01564e-10
-2.19208e-10
4.81574e-10
-7.82131e-11
3.92278e-10
9.09515e-11
2.25457e-10
2.80832e-10
-2.49123e-11
4.85425e-10
-3.63059e-10
6.99877e-10
-7.91669e-10
9.20304e-10
-1.31218e-09
1.14358e-09
-1.92501e-09
1.36717e-09
-2.62968e-09
1.58904e-09
-3.42506e-09
1.80756e-09
-4.30939e-09
2.02137e-09
-5.28047e-09
2.22941e-09
-6.33569e-09
2.43081e-09
-7.47212e-09
2.62484e-09
-8.68657e-09
2.81096e-09
-9.97565e-09
2.98871e-09
-1.13358e-08
3.15772e-09
-1.27633e-08
3.31773e-09
-1.42543e-08
3.46851e-09
-1.5805e-08
3.60992e-09
-1.74114e-08
3.74185e-09
-1.90695e-08
3.86422e-09
-2.07754e-08
3.977e-09
-2.25249e-08
4.0802e-09
-2.4314e-08
4.17383e-09
-2.61388e-08
4.25794e-09
-2.79953e-08
4.3326e-09
-2.98794e-08
4.3979e-09
-3.17874e-08
4.45393e-09
-3.37152e-08
4.5008e-09
-3.56591e-08
4.53864e-09
-3.76153e-08
4.56758e-09
-3.958e-08
4.58775e-09
-4.15496e-08
4.59931e-09
-4.35204e-08
4.60241e-09
-4.5489e-08
4.5972e-09
-4.74519e-08
4.58385e-09
-4.94056e-08
4.56254e-09
-5.13469e-08
4.53345e-09
-5.32725e-08
4.49674e-09
-5.51791e-08
4.4526e-09
-5.70638e-08
4.40121e-09
-5.89234e-08
4.34276e-09
-6.07551e-08
4.27744e-09
-6.2556e-08
4.20543e-09
-6.43233e-08
4.12693e-09
-6.60542e-08
4.04213e-09
-6.77463e-08
3.95123e-09
-6.93969e-08
3.85442e-09
-7.10036e-08
3.75189e-09
-7.2564e-08
3.64385e-09
-7.40759e-08
3.5305e-09
-7.5537e-08
3.41202e-09
-7.69453e-08
3.28864e-09
-7.82987e-08
3.16053e-09
-7.95953e-08
3.02792e-09
-8.08333e-08
2.89101e-09
-8.20108e-08
2.75e-09
-8.31263e-08
2.60509e-09
-8.41781e-08
2.45651e-09
-8.51647e-08
2.30445e-09
-8.60848e-08
2.14913e-09
-8.69371e-08
1.99075e-09
-8.77203e-08
1.82954e-09
-8.84332e-08
1.6657e-09
-8.9075e-08
1.49946e-09
-8.96445e-08
1.33103e-09
-9.01411e-08
1.16063e-09
-9.05639e-08
9.88478e-10
-9.09123e-08
8.14808e-10
-9.11858e-08
6.3984e-10
-9.13838e-08
4.63803e-10
-9.15061e-08
2.86927e-10
-9.15523e-08
1.0944e-10
-9.15224e-08
-6.84265e-11
-9.14162e-08
-2.46438e-10
-9.12338e-08
-4.24356e-10
-9.09754e-08
-6.01941e-10
-9.06412e-08
-7.78954e-10
-9.02315e-08
-9.55152e-10
-8.97468e-08
-1.13029e-09
-8.91877e-08
-1.30412e-09
-8.85549e-08
-1.4764e-09
-8.78491e-08
-1.64688e-09
-8.70712e-08
-1.81531e-09
-8.62222e-08
-1.98143e-09
-8.53032e-08
-2.145e-09
-8.43155e-08
-2.30575e-09
-8.32603e-08
-2.46343e-09
-8.2139e-08
-2.61779e-09
-8.09533e-08
-2.76857e-09
-7.97047e-08
-2.91552e-09
-7.8395e-08
-3.05838e-09
-7.7026e-08
-3.1969e-09
-7.55998e-08
-3.33081e-09
-7.41185e-08
-3.45988e-09
-7.25841e-08
-3.58384e-09
-7.09991e-08
-3.70245e-09
-6.93657e-08
-3.81545e-09
-6.76866e-08
-3.9226e-09
-6.59643e-08
-4.02366e-09
-6.42015e-08
-4.11838e-09
-6.24011e-08
-4.20652e-09
-6.05659e-08
-4.28786e-09
-5.8699e-08
-4.36217e-09
-5.68034e-08
-4.42922e-09
-5.48823e-08
-4.4888e-09
-5.29391e-08
-4.5407e-09
-5.09771e-08
-4.58469e-09
-4.89998e-08
-4.6206e-09
-4.70106e-08
-4.64822e-09
-4.50132e-08
-4.66738e-09
-4.30112e-08
-4.67789e-09
-4.10085e-08
-4.6796e-09
-3.90088e-08
-4.67235e-09
-3.7016e-08
-4.65599e-09
-3.5034e-08
-4.6304e-09
-3.30668e-08
-4.59545e-09
-3.11183e-08
-4.55104e-09
-2.91928e-08
-4.49707e-09
-2.72941e-08
-4.43346e-09
-2.54265e-08
-4.36017e-09
-2.35939e-08
-4.27714e-09
-2.18006e-08
-4.18437e-09
-2.00507e-08
-4.08185e-09
-1.83481e-08
-3.96961e-09
-1.66971e-08
-3.84772e-09
-1.51015e-08
-3.71625e-09
-1.35653e-08
-3.57534e-09
-1.20923e-08
-3.42514e-09
-1.06864e-08
-3.26585e-09
-9.35125e-09
-3.09773e-09
-8.09024e-09
-2.92109e-09
-6.90673e-09
-2.73632e-09
-5.80385e-09
-2.54387e-09
-4.78442e-09
-2.34431e-09
-3.85102e-09
-2.1383e-09
-3.00584e-09
-1.92667e-09
-2.25062e-09
-1.71037e-09
-1.58663e-09
-1.49059e-09
-1.0145e-09
-1.26874e-09
-5.34136e-10
-1.04654e-09
-1.44565e-10
-8.26088e-10
1.56233e-10
-6.09951e-10
3.71536e-10
-4.01278e-10
5.06129e-10
-2.03948e-10
5.66583e-10
-2.27452e-11
5.61583e-10
1.36443e-10
5.02266e-10
2.66407e-10
4.02575e-10
3.58434e-10
2.79605e-10
4.0226e-10
1.53938e-10
3.86317e-10
5.02111e-11
2.98654e-10
1.29085e-10
4.72133e-11
-1.78583e-10
1.39583e-10
-3.87168e-10
2.41436e-10
-4.75386e-10
3.25495e-10
-4.62614e-10
3.69459e-10
-3.66908e-10
3.54998e-10
-2.04757e-10
2.67245e-10
9.54429e-12
9.4306e-11
2.6388e-10
-1.73051e-10
5.48195e-10
-5.41785e-10
8.54163e-10
-1.01687e-09
1.17497e-09
-1.60159e-09
1.50503e-09
-2.29781e-09
1.83979e-09
-3.10617e-09
2.17553e-09
-4.0263e-09
2.50918e-09
-5.05699e-09
2.83824e-09
-6.1963e-09
3.16068e-09
-7.4417e-09
3.47482e-09
-8.79017e-09
3.77927e-09
-1.02383e-08
4.07295e-09
-1.17822e-08
4.35492e-09
-1.3418e-08
4.62446e-09
-1.51413e-08
4.88099e-09
-1.69476e-08
5.12404e-09
-1.88323e-08
5.35325e-09
-2.07907e-08
5.56836e-09
-2.2818e-08
5.76915e-09
-2.49093e-08
5.95551e-09
-2.70597e-08
6.12735e-09
-2.92641e-08
6.28466e-09
-3.15178e-08
6.42744e-09
-3.38156e-08
6.55575e-09
-3.61526e-08
6.66967e-09
-3.8524e-08
6.76932e-09
-4.0925e-08
6.85483e-09
-4.33505e-08
6.92637e-09
-4.5796e-08
6.9841e-09
-4.82566e-08
7.02821e-09
-5.07278e-08
7.05891e-09
-5.32049e-08
7.07642e-09
-5.56834e-08
7.08096e-09
-5.8159e-08
7.07278e-09
-6.06273e-08
7.05213e-09
-6.3084e-08
7.01925e-09
-6.55249e-08
6.97441e-09
-6.79461e-08
6.91788e-09
-7.03434e-08
6.84994e-09
-7.27131e-08
6.77086e-09
-7.50513e-08
6.68093e-09
-7.73543e-08
6.58043e-09
-7.96185e-08
6.46965e-09
-8.18404e-08
6.34888e-09
-8.40167e-08
6.21843e-09
-8.61441e-08
6.07857e-09
-8.82193e-08
5.92963e-09
-9.02393e-08
5.77189e-09
-9.22011e-08
5.60566e-09
-9.41018e-08
5.43124e-09
-9.59387e-08
5.24895e-09
-9.77092e-08
5.05908e-09
-9.94106e-08
4.86197e-09
-1.01041e-07
4.6579e-09
-1.02597e-07
4.44721e-09
-1.04077e-07
4.23022e-09
-1.05479e-07
4.00723e-09
-1.06801e-07
3.77857e-09
-1.08041e-07
3.54456e-09
-1.09198e-07
3.30553e-09
-1.10269e-07
3.0618e-09
-1.11253e-07
2.8137e-09
-1.12149e-07
2.56157e-09
-1.12955e-07
2.30574e-09
-1.13671e-07
2.04654e-09
-1.14294e-07
1.78431e-09
-1.14825e-07
1.51941e-09
-1.15263e-07
1.25216e-09
-1.15606e-07
9.82932e-10
-1.15854e-07
7.12061e-10
-1.16007e-07
4.39905e-10
-1.16064e-07
1.66818e-10
-1.16026e-07
-1.06842e-10
-1.15892e-07
-3.80712e-10
-1.15662e-07
-6.54427e-10
-1.15336e-07
-9.27617e-10
-1.14915e-07
-1.19991e-09
-1.14399e-07
-1.47094e-09
-1.13789e-07
-1.74033e-09
-1.13085e-07
-2.00769e-09
-1.12289e-07
-2.27265e-09
-1.11401e-07
-2.53482e-09
-1.10423e-07
-2.79382e-09
-1.09355e-07
-3.04927e-09
-1.08199e-07
-3.30077e-09
-1.06957e-07
-3.54792e-09
-1.0563e-07
-3.79034e-09
-1.0422e-07
-4.02764e-09
-1.02729e-07
-4.25943e-09
-1.0116e-07
-4.48531e-09
-9.95131e-08
-4.70488e-09
-9.77922e-08
-4.91777e-09
-9.59995e-08
-5.12357e-09
-9.41374e-08
-5.32191e-09
-9.22089e-08
-5.5124e-09
-9.02167e-08
-5.69464e-09
-8.81639e-08
-5.86827e-09
-8.60536e-08
-6.0329e-09
-8.38891e-08
-6.18815e-09
-8.16738e-08
-6.33367e-09
-7.94112e-08
-6.46909e-09
-7.7105e-08
-6.59406e-09
-7.4759e-08
-6.70823e-09
-7.23769e-08
-6.81126e-09
-6.99629e-08
-6.90282e-09
-6.7521e-08
-6.98259e-09
-6.50555e-08
-7.05024e-09
-6.25706e-08
-7.10549e-09
-6.00707e-08
-7.14804e-09
-5.75605e-08
-7.17762e-09
-5.50444e-08
-7.19396e-09
-5.25272e-08
-7.19682e-09
-5.00136e-08
-7.18597e-09
-4.75084e-08
-7.1612e-09
-4.50165e-08
-7.1223e-09
-4.25428e-08
-7.0691e-09
-4.00924e-08
-7.00145e-09
-3.76703e-08
-6.91922e-09
-3.52814e-08
-6.8223e-09
-3.2931e-08
-6.71061e-09
-3.0624e-08
-6.58411e-09
-2.83656e-08
-6.44278e-09
-2.61608e-08
-6.28665e-09
-2.40147e-08
-6.11577e-09
-2.19321e-08
-5.93025e-09
-1.99181e-08
-5.73025e-09
-1.79775e-08
-5.51598e-09
-1.61149e-08
-5.2877e-09
-1.4335e-08
-5.04575e-09
-1.26422e-08
-4.79055e-09
-1.10407e-08
-4.52262e-09
-9.53444e-09
-4.24256e-09
-8.12718e-09
-3.95112e-09
-6.8223e-09
-3.64919e-09
-5.62277e-09
-3.33783e-09
-4.53112e-09
-3.01831e-09
-3.54935e-09
-2.69214e-09
-2.67881e-09
-2.36113e-09
-1.92011e-09
-2.02744e-09
-1.27296e-09
-1.69369e-09
-7.36049e-10
-1.363e-09
-3.06852e-10
-1.03915e-09
1.85969e-11
-7.26727e-10
2.45926e-10
-4.31278e-10
3.82701e-10
-1.59521e-10
4.38714e-10
8.04282e-11
4.26299e-10
2.78822e-10
3.60657e-10
4.24076e-10
2.60263e-10
5.02655e-10
1.47383e-10
4.99199e-10
4.9038e-11
3.96998e-10
1.78122e-10
4.0055e-11
-2.18643e-10
1.13371e-10
-4.60481e-10
1.84109e-10
-5.46123e-10
2.24192e-10
-5.02701e-10
2.10653e-10
-3.53376e-10
1.24592e-10
-1.18684e-10
-4.9475e-11
1.83612e-10
-3.2402e-10
5.3843e-10
-7.08886e-10
9.33056e-10
-1.21158e-09
1.35685e-09
-1.83757e-09
1.80096e-09
-2.59056e-09
2.25801e-09
-3.47268e-09
2.72192e-09
-4.48478e-09
3.18762e-09
-5.62655e-09
3.65094e-09
-6.89672e-09
4.10841e-09
-8.29319e-09
4.55716e-09
-9.81321e-09
4.99483e-09
-1.14534e-08
5.41945e-09
-1.32098e-08
5.82941e-09
-1.50783e-08
6.2234e-09
-1.70542e-08
6.60033e-09
-1.91325e-08
6.95934e-09
-2.13082e-08
7.29973e-09
-2.35759e-08
7.62095e-09
-2.59301e-08
7.92257e-09
-2.83653e-08
8.20428e-09
-3.08756e-08
8.46586e-09
-3.34554e-08
8.70718e-09
-3.60989e-08
8.92816e-09
-3.88003e-08
9.12879e-09
-4.15537e-08
9.30914e-09
-4.43533e-08
9.4693e-09
-4.71934e-08
9.60939e-09
-5.00681e-08
9.7296e-09
-5.29719e-08
9.83013e-09
-5.5899e-08
9.91122e-09
-5.88439e-08
9.9731e-09
-6.18011e-08
1.00161e-08
-6.47651e-08
1.00404e-08
-6.77305e-08
1.00464e-08
-7.06922e-08
1.00345e-08
-7.3645e-08
1.00049e-08
-7.65838e-08
9.95803e-09
-7.95036e-08
9.89424e-09
-8.23997e-08
9.8139e-09
-8.52671e-08
9.71739e-09
-8.81014e-08
9.60511e-09
-9.08979e-08
9.47746e-09
-9.36523e-08
9.33482e-09
-9.63602e-08
9.17761e-09
-9.90176e-08
9.00625e-09
-1.0162e-07
8.82114e-09
-1.04164e-07
8.6227e-09
-1.06646e-07
8.41136e-09
-1.09062e-07
8.18755e-09
-1.11408e-07
7.95168e-09
-1.13681e-07
7.70421e-09
-1.15877e-07
7.44555e-09
-1.17994e-07
7.17616e-09
-1.20029e-07
6.89646e-09
-1.21978e-07
6.60691e-09
-1.23839e-07
6.30796e-09
-1.25609e-07
6.00004e-09
-1.27285e-07
5.68363e-09
-1.28866e-07
5.35916e-09
-1.30348e-07
5.02711e-09
-1.31731e-07
4.68793e-09
-1.33011e-07
4.34209e-09
-1.34187e-07
3.99005e-09
-1.35258e-07
3.63229e-09
-1.36221e-07
3.26928e-09
-1.37076e-07
2.9015e-09
-1.37822e-07
2.52944e-09
-1.38456e-07
2.15358e-09
-1.38978e-07
1.77441e-09
-1.39387e-07
1.39242e-09
-1.39683e-07
1.00813e-09
-1.39866e-07
6.22017e-10
-1.39933e-07
2.34598e-10
-1.39887e-07
-1.53619e-10
-1.39725e-07
-5.42119e-10
-1.39449e-07
-9.30383e-10
-1.39059e-07
-1.31789e-09
-1.38555e-07
-1.70411e-09
-1.37937e-07
-2.08851e-09
-1.37207e-07
-2.47057e-09
-1.36365e-07
-2.84974e-09
-1.35412e-07
-3.22548e-09
-1.3435e-07
-3.59725e-09
-1.33179e-07
-3.96451e-09
-1.31902e-07
-4.3267e-09
-1.30519e-07
-4.68327e-09
-1.29033e-07
-5.03367e-09
-1.27446e-07
-5.37735e-09
-1.2576e-07
-5.71375e-09
-1.23977e-07
-6.04231e-09
-1.221e-07
-6.36248e-09
-1.20131e-07
-6.6737e-09
-1.18074e-07
-6.97543e-09
-1.1593e-07
-7.26711e-09
-1.13704e-07
-7.54819e-09
-1.11398e-07
-7.81813e-09
-1.09016e-07
-8.07639e-09
-1.06562e-07
-8.32243e-09
-1.04039e-07
-8.55571e-09
-1.01452e-07
-8.77571e-09
-9.88036e-08
-8.98192e-09
-9.60989e-08
-9.17383e-09
-9.3342e-08
-9.35094e-09
-9.05375e-08
-9.51276e-09
-8.76899e-08
-9.65881e-09
-8.48041e-08
-9.78863e-09
-8.18849e-08
-9.90177e-09
-7.89374e-08
-9.99779e-09
-7.59666e-08
-1.00763e-08
-7.29778e-08
-1.01368e-08
-6.99764e-08
-1.0179e-08
-6.69678e-08
-1.02025e-08
-6.39576e-08
-1.0207e-08
-6.09514e-08
-1.01922e-08
-5.7955e-08
-1.01577e-08
-5.4974e-08
-1.01033e-08
-5.20143e-08
-1.00287e-08
-4.9082e-08
-9.93383e-09
-4.61828e-08
-9.81842e-09
-4.33227e-08
-9.68235e-09
-4.05078e-08
-9.52553e-09
-3.7744e-08
-9.34792e-09
-3.50373e-08
-9.14951e-09
-3.23936e-08
-8.93034e-09
-2.98188e-08
-8.69054e-09
-2.73188e-08
-8.43028e-09
-2.48992e-08
-8.1498e-09
-2.25658e-08
-7.84942e-09
-2.03239e-08
-7.52955e-09
-1.8179e-08
-7.1907e-09
-1.61361e-08
-6.8335e-09
-1.42e-08
-6.4587e-09
-1.23753e-08
-6.06723e-09
-1.06663e-08
-5.66014e-09
-9.07672e-09
-5.23875e-09
-7.60999e-09
-4.80456e-09
-6.26889e-09
-4.35941e-09
-5.0556e-09
-3.90543e-09
-3.97155e-09
-3.44518e-09
-3.01732e-09
-2.98167e-09
-2.19249e-09
-2.51852e-09
-1.49548e-09
-2.06001e-09
-9.23381e-10
-1.61124e-09
-4.71761e-10
-1.17835e-09
-1.34417e-10
-7.68622e-10
9.68453e-11
-3.90785e-10
2.32489e-10
-5.52164e-11
2.85525e-10
2.25787e-10
2.7184e-10
4.3776e-10
2.1063e-10
5.63864e-10
1.24999e-10
5.8483e-10
4.29855e-11
4.79013e-10
2.21107e-10
2.9573e-11
-2.48212e-10
7.55679e-11
-5.06478e-10
1.03709e-10
-5.74259e-10
8.6345e-11
-4.85337e-10
6.5542e-13
-2.67685e-10
-1.72274e-10
5.42394e-11
-4.48015e-10
4.59351e-10
-8.39217e-10
9.29637e-10
-1.35596e-09
1.44979e-09
-2.00599e-09
2.00689e-09
-2.79504e-09
2.59001e-09
-3.72701e-09
3.18998e-09
-4.80421e-09
3.79912e-09
-6.02758e-09
4.41098e-09
-7.39681e-09
5.02017e-09
-8.91058e-09
5.62218e-09
-1.05666e-08
6.21323e-09
-1.2362e-08
6.79018e-09
-1.4293e-08
7.35042e-09
-1.63553e-08
7.89176e-09
-1.85443e-08
8.41241e-09
-2.08549e-08
8.91088e-09
-2.32815e-08
9.38597e-09
-2.58185e-08
9.83669e-09
-2.84598e-08
1.02623e-08
-3.11993e-08
1.06621e-08
-3.40308e-08
1.10357e-08
-3.69477e-08
1.13828e-08
-3.99436e-08
1.17031e-08
-4.30119e-08
1.19965e-08
-4.6146e-08
1.22629e-08
-4.93393e-08
1.25024e-08
-5.25851e-08
1.27152e-08
-5.5877e-08
1.29012e-08
-5.92082e-08
1.30609e-08
-6.25724e-08
1.31943e-08
-6.5963e-08
1.33018e-08
-6.93736e-08
1.33838e-08
-7.2798e-08
1.34405e-08
-7.62299e-08
1.34723e-08
-7.96632e-08
1.34797e-08
-8.30918e-08
1.34631e-08
-8.65098e-08
1.34229e-08
-8.99114e-08
1.33596e-08
-9.32908e-08
1.32737e-08
-9.66425e-08
1.31656e-08
-9.9961e-08
1.30359e-08
-1.03241e-07
1.2885e-08
-1.06477e-07
1.27136e-08
-1.09664e-07
1.25221e-08
-1.12798e-07
1.23111e-08
-1.15873e-07
1.20811e-08
-1.18884e-07
1.18326e-08
-1.21828e-07
1.15663e-08
-1.24699e-07
1.12827e-08
-1.27494e-07
1.09824e-08
-1.30208e-07
1.06659e-08
-1.32838e-07
1.03339e-08
-1.35379e-07
9.9868e-09
-1.37828e-07
9.62533e-09
-1.40182e-07
9.25004e-09
-1.42437e-07
8.86153e-09
-1.44589e-07
8.4604e-09
-1.46636e-07
8.04725e-09
-1.48575e-07
7.62269e-09
-1.50403e-07
7.18734e-09
-1.52118e-07
6.74181e-09
-1.53717e-07
6.28671e-09
-1.55197e-07
5.82269e-09
-1.56558e-07
5.35035e-09
-1.57796e-07
4.87034e-09
-1.5891e-07
4.3833e-09
-1.59898e-07
3.88987e-09
-1.60759e-07
3.3907e-09
-1.61492e-07
2.88644e-09
-1.62096e-07
2.37776e-09
-1.62569e-07
1.86532e-09
-1.6291e-07
1.34978e-09
-1.6312e-07
8.31827e-10
-1.63198e-07
3.12132e-10
-1.63143e-07
-2.08615e-10
-1.62955e-07
-7.29721e-10
-1.62635e-07
-1.25049e-09
-1.62183e-07
-1.77023e-09
-1.61598e-07
-2.28822e-09
-1.60883e-07
-2.80375e-09
-1.60038e-07
-3.31612e-09
-1.59063e-07
-3.82458e-09
-1.5796e-07
-4.32844e-09
-1.5673e-07
-4.82694e-09
-1.55375e-07
-5.31937e-09
-1.53897e-07
-5.80499e-09
-1.52297e-07
-6.28305e-09
-1.50578e-07
-6.75282e-09
-1.48742e-07
-7.21355e-09
-1.46791e-07
-7.66451e-09
-1.44728e-07
-8.10494e-09
-1.42557e-07
-8.53411e-09
-1.40279e-07
-8.95127e-09
-1.37899e-07
-9.35569e-09
-1.35419e-07
-9.74663e-09
-1.32844e-07
-1.01234e-08
-1.30177e-07
-1.04851e-08
-1.27422e-07
-1.08313e-08
-1.24584e-07
-1.1161e-08
-1.21666e-07
-1.14737e-08
-1.18673e-07
-1.17685e-08
-1.1561e-07
-1.20449e-08
-1.12482e-07
-1.23022e-08
-1.09293e-07
-1.25396e-08
-1.06049e-07
-1.27566e-08
-1.02756e-07
-1.29525e-08
-9.94175e-08
-1.31266e-08
-9.60408e-08
-1.32785e-08
-9.26312e-08
-1.34075e-08
-8.91945e-08
-1.3513e-08
-8.57367e-08
-1.35945e-08
-8.22641e-08
-1.36516e-08
-7.87829e-08
-1.36838e-08
-7.52995e-08
-1.36905e-08
-7.18202e-08
-1.36714e-08
-6.83518e-08
-1.36261e-08
-6.49007e-08
-1.35543e-08
-6.14737e-08
-1.34557e-08
-5.80776e-08
-1.333e-08
-5.4719e-08
-1.3177e-08
-5.14049e-08
-1.29965e-08
-4.8142e-08
-1.27884e-08
-4.49372e-08
-1.25527e-08
-4.17973e-08
-1.22895e-08
-3.87289e-08
-1.19987e-08
-3.57388e-08
-1.16806e-08
-3.28337e-08
-1.13355e-08
-3.00199e-08
-1.09636e-08
-2.73038e-08
-1.05655e-08
-2.46916e-08
-1.01417e-08
-2.21893e-08
-9.69302e-09
-1.98025e-08
-9.22025e-09
-1.75368e-08
-8.72446e-09
-1.53971e-08
-8.20691e-09
-1.33882e-08
-7.66907e-09
-1.15142e-08
-7.11271e-09
-9.77887e-09
-6.53989e-09
-8.18525e-09
-5.95303e-09
-6.73567e-09
-5.35501e-09
-5.43165e-09
-4.74919e-09
-4.27377e-09
-4.13955e-09
-3.26153e-09
-3.53076e-09
-2.3932e-09
-2.92834e-09
-1.66563e-09
-2.33881e-09
-1.07411e-09
-1.76987e-09
-6.12119e-10
-1.23061e-09
-2.71135e-10
-7.31769e-10
-4.03849e-11
-2.85966e-10
9.3412e-11
9.19907e-11
1.46361e-10
3.84813e-10
1.37806e-10
5.72419e-10
9.09126e-11
6.31722e-10
3.35445e-11
5.36382e-10
2.54653e-10
1.68509e-11
-2.65062e-10
2.94949e-11
-5.19125e-10
6.24639e-12
-5.51011e-10
-7.91783e-11
-3.99905e-10
-2.48808e-10
-9.80644e-11
-5.21022e-10
3.26458e-10
-9.11088e-10
8.49416e-10
-1.43147e-09
1.45002e-09
-2.09217e-09
2.1105e-09
-2.90093e-09
2.81565e-09
-3.8635e-09
3.55258e-09
-4.98382e-09
4.3103e-09
-6.26422e-09
5.07953e-09
-7.70563e-09
5.85239e-09
-9.30769e-09
6.62224e-09
-1.1069e-08
7.38347e-09
-1.29871e-08
8.13135e-09
-1.50588e-08
8.86189e-09
-1.72802e-08
9.57176e-09
-1.96466e-08
1.02582e-08
-2.21529e-08
1.09188e-08
-2.47936e-08
1.15516e-08
-2.75628e-08
1.21551e-08
-3.04541e-08
1.2728e-08
-3.34609e-08
1.32692e-08
-3.65767e-08
1.37778e-08
-3.97943e-08
1.42533e-08
-4.31067e-08
1.46952e-08
-4.65067e-08
1.51031e-08
-4.99871e-08
1.54768e-08
-5.35405e-08
1.58163e-08
-5.71595e-08
1.61215e-08
-6.08369e-08
1.63925e-08
-6.45652e-08
1.66296e-08
-6.83372e-08
1.68328e-08
-7.21455e-08
1.70026e-08
-7.5983e-08
1.71393e-08
-7.98426e-08
1.72433e-08
-8.3717e-08
1.73149e-08
-8.75994e-08
1.73547e-08
-9.14829e-08
1.73632e-08
-9.53608e-08
1.73409e-08
-9.92262e-08
1.72884e-08
-1.03073e-07
1.72062e-08
-1.06894e-07
1.70949e-08
-1.10684e-07
1.69552e-08
-1.14435e-07
1.67877e-08
-1.18143e-07
1.65931e-08
-1.21802e-07
1.6372e-08
-1.25405e-07