/*--------------------------------*- C++ -*----------------------------------*\
  =========                 |
  \\      /  F ield         | OpenFOAM: The Open Source CFD Toolbox
   \\    /   O peration     | Website:  https://openfoam.org
    \\  /    A nd           | Version:  7
     \\/     M anipulation  |
\*---------------------------------------------------------------------------*/
FoamFile
{
    version     2.0;
    format      ascii;
    class       volVectorField;
    location    "0.175";
    object      U;
}
// * * * * * * * * * * * * * * * * * * * * * * * * * * * * * * * * * * * * * //

dimensions      [0 1 -1 0 0 0 0];

internalField   nonuniform List<vector> 
25600
(
(3.88096e-07 1.12604e-08 0)
(2.78863e-06 -1.52896e-06 0)
(8.99679e-06 -2.76547e-06 0)
(1.6695e-05 -3.17875e-06 0)
(2.46589e-05 -3.10965e-06 0)
(3.17614e-05 -2.73539e-06 0)
(3.73605e-05 -2.1692e-06 0)
(4.10088e-05 -1.48715e-06 0)
(4.2408e-05 -7.37503e-07 0)
(4.13676e-05 5.11143e-08 0)
(3.77723e-05 8.58714e-07 0)
(3.15579e-05 1.66999e-06 0)
(2.27056e-05 2.47654e-06 0)
(1.12251e-05 3.26964e-06 0)
(-2.85157e-06 4.04397e-06 0)
(-1.94708e-05 4.79659e-06 0)
(-3.8568e-05 5.52336e-06 0)
(-6.00674e-05 6.22267e-06 0)
(-8.38832e-05 6.89249e-06 0)
(-0.000109924 7.53224e-06 0)
(-0.000138093 8.14149e-06 0)
(-0.000168292 8.71916e-06 0)
(-0.000200415 9.26534e-06 0)
(-0.000234359 9.77959e-06 0)
(-0.000270017 1.02608e-05 0)
(-0.000307281 1.07096e-05 0)
(-0.000346043 1.11266e-05 0)
(-0.000386195 1.15118e-05 0)
(-0.000427631 1.18655e-05 0)
(-0.000470241 1.21877e-05 0)
(-0.000513921 1.24791e-05 0)
(-0.000558564 1.27396e-05 0)
(-0.000604066 1.29703e-05 0)
(-0.000650323 1.3171e-05 0)
(-0.000697235 1.33429e-05 0)
(-0.000744701 1.34866e-05 0)
(-0.000792622 1.36022e-05 0)
(-0.000840901 1.36903e-05 0)
(-0.000889444 1.37514e-05 0)
(-0.000938157 1.37863e-05 0)
(-0.000986947 1.37954e-05 0)
(-0.00103573 1.37791e-05 0)
(-0.00108441 1.37381e-05 0)
(-0.0011329 1.3673e-05 0)
(-0.00118112 1.35842e-05 0)
(-0.001229 1.34727e-05 0)
(-0.00127644 1.3339e-05 0)
(-0.00132337 1.31836e-05 0)
(-0.00136972 1.30071e-05 0)
(-0.00141541 1.28101e-05 0)
(-0.00146037 1.25932e-05 0)
(-0.00150453 1.2357e-05 0)
(-0.00154782 1.21019e-05 0)
(-0.00159018 1.18287e-05 0)
(-0.00163155 1.15382e-05 0)
(-0.00167185 1.12308e-05 0)
(-0.00171104 1.09071e-05 0)
(-0.00174906 1.05676e-05 0)
(-0.00178584 1.0213e-05 0)
(-0.00182135 9.84385e-06 0)
(-0.00185552 9.46057e-06 0)
(-0.00188831 9.06388e-06 0)
(-0.00191968 8.65454e-06 0)
(-0.00194957 8.23316e-06 0)
(-0.00197795 7.80029e-06 0)
(-0.00200478 7.35653e-06 0)
(-0.00203002 6.90251e-06 0)
(-0.00205363 6.43879e-06 0)
(-0.00207558 5.96593e-06 0)
(-0.00209584 5.48465e-06 0)
(-0.00211438 4.99571e-06 0)
(-0.00213117 4.49974e-06 0)
(-0.0021462 3.99723e-06 0)
(-0.00215943 3.48864e-06 0)
(-0.00217084 2.97464e-06 0)
(-0.00218043 2.45603e-06 0)
(-0.00218818 1.93351e-06 0)
(-0.00219406 1.40776e-06 0)
(-0.00219808 8.79424e-07 0)
(-0.00220022 3.49132e-07 0)
(-0.00220048 -1.82429e-07 0)
(-0.00219886 -7.14573e-07 0)
(-0.00219535 -1.24663e-06 0)
(-0.00218996 -1.77792e-06 0)
(-0.00218269 -2.30771e-06 0)
(-0.00217355 -2.83531e-06 0)
(-0.00216254 -3.35999e-06 0)
(-0.00214969 -3.88098e-06 0)
(-0.002135 -4.39751e-06 0)
(-0.00211849 -4.90881e-06 0)
(-0.00210019 -5.41419e-06 0)
(-0.00208011 -5.91303e-06 0)
(-0.00205827 -6.40459e-06 0)
(-0.00203472 -6.88791e-06 0)
(-0.00200947 -7.36208e-06 0)
(-0.00198257 -7.82642e-06 0)
(-0.00195404 -8.28036e-06 0)
(-0.00192393 -8.72316e-06 0)
(-0.00189228 -9.15396e-06 0)
(-0.00185914 -9.5719e-06 0)
(-0.00182454 -9.97616e-06 0)
(-0.00178854 -1.0366e-05 0)
(-0.00175119 -1.07406e-05 0)
(-0.00171255 -1.10993e-05 0)
(-0.00167268 -1.14415e-05 0)
(-0.00163163 -1.17662e-05 0)
(-0.00158947 -1.20726e-05 0)
(-0.00154627 -1.23599e-05 0)
(-0.00150209 -1.26274e-05 0)
(-0.00145701 -1.28745e-05 0)
(-0.00141109 -1.31005e-05 0)
(-0.00136442 -1.33048e-05 0)
(-0.00131707 -1.34864e-05 0)
(-0.00126912 -1.36447e-05 0)
(-0.00122066 -1.3779e-05 0)
(-0.00117177 -1.38886e-05 0)
(-0.00112254 -1.3973e-05 0)
(-0.00107306 -1.40316e-05 0)
(-0.00102343 -1.40638e-05 0)
(-0.000973725 -1.40691e-05 0)
(-0.000924054 -1.40467e-05 0)
(-0.000874511 -1.39962e-05 0)
(-0.000825195 -1.39171e-05 0)
(-0.000776207 -1.38089e-05 0)
(-0.000727649 -1.36711e-05 0)
(-0.000679624 -1.35034e-05 0)
(-0.000632238 -1.33052e-05 0)
(-0.000585595 -1.30764e-05 0)
(-0.000539803 -1.28166e-05 0)
(-0.000494968 -1.25256e-05 0)
(-0.000451199 -1.2203e-05 0)
(-0.000408603 -1.18489e-05 0)
(-0.000367289 -1.1463e-05 0)
(-0.000327364 -1.10455e-05 0)
(-0.000288935 -1.05965e-05 0)
(-0.00025211 -1.01158e-05 0)
(-0.000216992 -9.60369e-06 0)
(-0.000183687 -9.06048e-06 0)
(-0.000152296 -8.48665e-06 0)
(-0.000122918 -7.88281e-06 0)
(-9.56488e-05 -7.24976e-06 0)
(-7.05803e-05 -6.58858e-06 0)
(-4.77986e-05 -5.90056e-06 0)
(-2.73837e-05 -5.18717e-06 0)
(-9.40785e-06 -4.45037e-06 0)
(6.06672e-06 -3.69286e-06 0)
(1.89899e-05 -2.91803e-06 0)
(2.93267e-05 -2.13021e-06 0)
(3.70613e-05 -1.33516e-06 0)
(4.22026e-05 -5.40434e-07 0)
(4.47911e-05 2.43541e-07 0)
(4.49091e-05 1.00204e-06 0)
(4.26945e-05 1.71435e-06 0)
(3.83602e-05 2.35003e-06 0)
(3.22247e-05 2.86274e-06 0)
(2.47539e-05 3.18237e-06 0)
(1.66114e-05 3.2045e-06 0)
(8.747e-06 2.77234e-06 0)
(2.63567e-06 1.69246e-06 0)
(1.22019e-07 1.22997e-07 0)
(2.03056e-06 -2.89836e-06 0)
(9.66576e-06 -9.07214e-06 0)
(2.32304e-05 -1.3294e-05 0)
(3.93339e-05 -1.46533e-05 0)
(5.51251e-05 -1.39036e-05 0)
(6.85616e-05 -1.16355e-05 0)
(7.80995e-05 -8.29825e-06 0)
(8.25859e-05 -4.22951e-06 0)
(8.11905e-05 3.30634e-07 0)
(7.33372e-05 5.20682e-06 0)
(5.86413e-05 1.02707e-05 0)
(3.6876e-05 1.54282e-05 0)
(7.92382e-06 2.0606e-05 0)
(-2.82388e-05 2.57489e-05 0)
(-7.15604e-05 3.08148e-05 0)
(-0.000121938 3.57711e-05 0)
(-0.000179221 4.05917e-05 0)
(-0.000243221 4.52563e-05 0)
(-0.000313726 4.97493e-05 0)
(-0.000390497 5.40594e-05 0)
(-0.00047328 5.81768e-05 0)
(-0.000561807 6.20948e-05 0)
(-0.000655797 6.58088e-05 0)
(-0.000754964 6.93143e-05 0)
(-0.000859012 7.26081e-05 0)
(-0.000967645 7.56896e-05 0)
(-0.00108056 7.85579e-05 0)
(-0.00119745 8.12121e-05 0)
(-0.00131803 8.36541e-05 0)
(-0.00144197 8.5884e-05 0)
(-0.00156899 8.79043e-05 0)
(-0.00169878 8.97157e-05 0)
(-0.00183104 9.13217e-05 0)
(-0.00196548 9.27235e-05 0)
(-0.00210181 9.3925e-05 0)
(-0.00223974 9.49298e-05 0)
(-0.00237899 9.57401e-05 0)
(-0.00251928 9.63592e-05 0)
(-0.00266033 9.67911e-05 0)
(-0.00280187 9.7039e-05 0)
(-0.00294365 9.71062e-05 0)
(-0.00308539 9.69966e-05 0)
(-0.00322685 9.67144e-05 0)
(-0.00336778 9.6263e-05 0)
(-0.00350792 9.56464e-05 0)
(-0.00364706 9.48686e-05 0)
(-0.00378494 9.39339e-05 0)
(-0.00392135 9.28463e-05 0)
(-0.00405607 9.16096e-05 0)
(-0.00418888 9.02283e-05 0)
(-0.00431957 8.87064e-05 0)
(-0.00444794 8.70477e-05 0)
(-0.0045738 8.52561e-05 0)
(-0.00469694 8.33364e-05 0)
(-0.00481719 8.12929e-05 0)
(-0.00493437 7.91294e-05 0)
(-0.00504831 7.685e-05 0)
(-0.00515883 7.44591e-05 0)
(-0.00526579 7.19608e-05 0)
(-0.00536902 6.93595e-05 0)
(-0.00546837 6.66591e-05 0)
(-0.00556371 6.3864e-05 0)
(-0.0056549 6.09786e-05 0)
(-0.00574181 5.80072e-05 0)
(-0.00582432 5.49542e-05 0)
(-0.00590231 5.18241e-05 0)
(-0.00597567 4.86212e-05 0)
(-0.00604429 4.53497e-05 0)
(-0.00610809 4.2014e-05 0)
(-0.00616697 3.86186e-05 0)
(-0.00622084 3.5168e-05 0)
(-0.00626964 3.16669e-05 0)
(-0.00631328 2.81196e-05 0)
(-0.0063517 2.45304e-05 0)
(-0.00638485 2.09041e-05 0)
(-0.00641267 1.72456e-05 0)
(-0.00643513 1.35596e-05 0)
(-0.00645218 9.85066e-06 0)
(-0.0064638 6.12372e-06 0)
(-0.00646996 2.38358e-06 0)
(-0.00647065 -1.36504e-06 0)
(-0.00646586 -5.11738e-06 0)
(-0.00645558 -8.86851e-06 0)
(-0.00643983 -1.26133e-05 0)
(-0.00641862 -1.63467e-05 0)
(-0.00639196 -2.00636e-05 0)
(-0.00635989 -2.37588e-05 0)
(-0.00632245 -2.74273e-05 0)
(-0.00627967 -3.10637e-05 0)
(-0.0062316 -3.46629e-05 0)
(-0.00617831 -3.82196e-05 0)
(-0.00611987 -4.17288e-05 0)
(-0.00605634 -4.5185e-05 0)
(-0.00598781 -4.85826e-05 0)
(-0.00591437 -5.1916e-05 0)
(-0.00583611 -5.51796e-05 0)
(-0.00575315 -5.83686e-05 0)
(-0.0056656 -6.14776e-05 0)
(-0.00557357 -6.4501e-05 0)
(-0.0054772 -6.74333e-05 0)
(-0.00537662 -7.02691e-05 0)
(-0.00527199 -7.3003e-05 0)
(-0.00516345 -7.56296e-05 0)
(-0.00505116 -7.81436e-05 0)
(-0.0049353 -8.05396e-05 0)
(-0.00481603 -8.28123e-05 0)
(-0.00469355 -8.49565e-05 0)
(-0.00456804 -8.69666e-05 0)
(-0.00443971 -8.88376e-05 0)
(-0.00430876 -9.05645e-05 0)
(-0.0041754 -9.21428e-05 0)
(-0.00403986 -9.35675e-05 0)
(-0.00390236 -9.48338e-05 0)
(-0.00376314 -9.59368e-05 0)
(-0.00362243 -9.6872e-05 0)
(-0.00348049 -9.76349e-05 0)
(-0.00333757 -9.82213e-05 0)
(-0.00319393 -9.86271e-05 0)
(-0.00304983 -9.88484e-05 0)
(-0.00290554 -9.88815e-05 0)
(-0.00276135 -9.87228e-05 0)
(-0.00261752 -9.83688e-05 0)
(-0.00247435 -9.78164e-05 0)
(-0.00233213 -9.70625e-05 0)
(-0.00219115 -9.61045e-05 0)
(-0.0020517 -9.49398e-05 0)
(-0.00191409 -9.35661e-05 0)
(-0.00177861 -9.19818e-05 0)
(-0.00164558 -9.01855e-05 0)
(-0.00151529 -8.81761e-05 0)
(-0.00138806 -8.59527e-05 0)
(-0.00126418 -8.35152e-05 0)
(-0.00114398 -8.08638e-05 0)
(-0.00102774 -7.79997e-05 0)
(-0.000915773 -7.49244e-05 0)
(-0.000808377 -7.16397e-05 0)
(-0.000705845 -6.81485e-05 0)
(-0.000608464 -6.44544e-05 0)
(-0.000516514 -6.05624e-05 0)
(-0.000430266 -5.6479e-05 0)
(-0.00034998 -5.22118e-05 0)
(-0.000275898 -4.77707e-05 0)
(-0.000208249 -4.31676e-05 0)
(-0.000147239 -3.84172e-05 0)
(-9.30459e-05 -3.35377e-05 0)
(-4.58192e-05 -2.85513e-05 0)
(-5.66774e-06 -2.34863e-05 0)
(2.7347e-05 -1.83777e-05 0)
(5.32229e-05 -1.32699e-05 0)
(7.20317e-05 -8.21956e-06 0)
(8.39381e-05 -3.30057e-06 0)
(8.92249e-05 1.39032e-06 0)
(8.83245e-05 5.72445e-06 0)
(8.1862e-05 9.52883e-06 0)
(7.07106e-05 1.25675e-05 0)
(5.60587e-05 1.45202e-05 0)
(3.94601e-05 1.49637e-05 0)
(2.28941e-05 1.3358e-05 0)
(9.13471e-06 9.14574e-06 0)
(1.68513e-06 2.63285e-06 0)
(2.88207e-06 -9.10934e-06 0)
(1.34594e-05 -2.29321e-05 0)
(3.10805e-05 -3.08788e-05 0)
(5.07457e-05 -3.29647e-05 0)
(6.89153e-05 -3.02838e-05 0)
(8.3018e-05 -2.39441e-05 0)
(9.0976e-05 -1.48837e-05 0)
(9.11482e-05 -3.84788e-06 0)
(8.23091e-05 8.57957e-06 0)
(6.35615e-05 2.19511e-05 0)
(3.42908e-05 3.59249e-05 0)
(-5.90716e-06 5.02345e-05 0)
(-5.72517e-05 6.46717e-05 0)
(-0.000119822 7.90757e-05 0)
(-0.000193584 9.33192e-05 0)
(-0.000278407 0.0001073 0)
(-0.000374089 0.000120941 0)
(-0.000480367 0.000134177 0)
(-0.000596925 0.000146957 0)
(-0.000723411 0.000159243 0)
(-0.000859441 0.000171003 0)
(-0.00100461 0.000182212 0)
(-0.00115847 0.000192853 0)
(-0.0013206 0.00020291 0)
(-0.00149053 0.000212374 0)
(-0.00166778 0.000221239 0)
(-0.0018519 0.000229498 0)
(-0.00204239 0.000237151 0)
(-0.00223879 0.000244197 0)
(-0.0024406 0.000250638 0)
(-0.00264736 0.000256477 0)
(-0.00285857 0.000261719 0)
(-0.00307376 0.000266368 0)
(-0.00329246 0.000270431 0)
(-0.00351421 0.000273917 0)
(-0.00373854 0.000276832 0)
(-0.00396499 0.000279184 0)
(-0.00419312 0.000280984 0)
(-0.00442248 0.00028224 0)
(-0.00465264 0.000282962 0)
(-0.00488317 0.00028316 0)
(-0.00511364 0.000282845 0)
(-0.00534365 0.000282026 0)
(-0.0055728 0.000280716 0)
(-0.00580068 0.000278925 0)
(-0.00602691 0.000276664 0)
(-0.00625112 0.000273946 0)
(-0.00647294 0.000270781 0)
(-0.006692 0.000267182 0)
(-0.00690796 0.000263159 0)
(-0.00712048 0.000258726 0)
(-0.00732924 0.000253894 0)
(-0.0075339 0.000248674 0)
(-0.00773416 0.00024308 0)
(-0.00792972 0.000237123 0)
(-0.00812028 0.000230815 0)
(-0.00830557 0.000224168 0)
(-0.00848531 0.000217195 0)
(-0.00865924 0.000209908 0)
(-0.00882712 0.000202319 0)
(-0.00898869 0.000194441 0)
(-0.00914373 0.000186286 0)
(-0.00929202 0.000177867 0)
(-0.00943335 0.000169196 0)
(-0.00956751 0.000160287 0)
(-0.00969433 0.000151152 0)
(-0.00981361 0.000141803 0)
(-0.00992519 0.000132255 0)
(-0.0100289 0.000122518 0)
(-0.0101246 0.000112608 0)
(-0.0102122 0.000102536 0)
(-0.0102915 9.23163e-05 0)
(-0.0103624 8.19614e-05 0)
(-0.0104248 7.14852e-05 0)
(-0.0104787 6.09013e-05 0)
(-0.0105239 5.02235e-05 0)
(-0.0105603 3.94654e-05 0)
(-0.010588 2.86411e-05 0)
(-0.0106068 1.77646e-05 0)
(-0.0106167 6.85011e-06 0)
(-0.0106178 -4.08853e-06 0)
(-0.0106099 -1.50372e-05 0)
(-0.0105931 -2.59812e-05 0)
(-0.0105674 -3.69058e-05 0)
(-0.0105328 -4.7796e-05 0)
(-0.0104893 -5.86372e-05 0)
(-0.0104371 -6.94143e-05 0)
(-0.0103761 -8.01121e-05 0)
(-0.0103065 -9.07155e-05 0)
(-0.0102282 -0.000101209 0)
(-0.0101415 -0.000111578 0)
(-0.0100464 -0.000121807 0)
(-0.00994299 -0.000131879 0)
(-0.00983149 -0.00014178 0)
(-0.00971201 -0.000151492 0)
(-0.00958471 -0.000161001 0)
(-0.00944977 -0.000170291 0)
(-0.00930736 -0.000179346 0)
(-0.0091577 -0.00018815 0)
(-0.00900098 -0.000196688 0)
(-0.00883744 -0.000204943 0)
(-0.00866731 -0.000212901 0)
(-0.00849084 -0.000220545 0)
(-0.00830829 -0.00022786 0)
(-0.00811993 -0.000234831 0)
(-0.00792606 -0.000241441 0)
(-0.00772698 -0.000247677 0)
(-0.00752299 -0.000253522 0)
(-0.00731441 -0.000258961 0)
(-0.00710159 -0.000263981 0)
(-0.00688487 -0.000268568 0)
(-0.00666461 -0.000272707 0)
(-0.00644118 -0.000276384 0)
(-0.00621495 -0.000279587 0)
(-0.00598632 -0.000282302 0)
(-0.00575569 -0.000284517 0)
(-0.00552346 -0.000286218 0)
(-0.00529007 -0.000287396 0)
(-0.00505593 -0.000288038 0)
(-0.00482149 -0.000288134 0)
(-0.00458719 -0.000287674 0)
(-0.00435348 -0.000286649 0)
(-0.00412083 -0.000285049 0)
(-0.00388969 -0.000282867 0)
(-0.00366055 -0.000280095 0)
(-0.00343387 -0.000276727 0)
(-0.00321015 -0.000272757 0)
(-0.00298986 -0.000268181 0)
(-0.00277349 -0.000262996 0)
(-0.00256153 -0.000257198 0)
(-0.00235448 -0.000250788 0)
(-0.00215281 -0.000243765 0)
(-0.00195701 -0.000236131 0)
(-0.00176757 -0.000227892 0)
(-0.00158497 -0.000219052 0)
(-0.00140967 -0.00020962 0)
(-0.00124214 -0.000199606 0)
(-0.00108282 -0.000189022 0)
(-0.000932162 -0.000177886 0)
(-0.000790573 -0.000166219 0)
(-0.000658454 -0.000154047 0)
(-0.000536176 -0.0001414 0)
(-0.000424081 -0.000128318 0)
(-0.000322473 -0.000114848 0)
(-0.000231613 -0.000101046 0)
(-0.000151704 -8.69817e-05 0)
(-8.28892e-05 -7.27421e-05 0)
(-2.52288e-05 -5.84328e-05 0)
(2.13115e-05 -4.41858e-05 0)
(5.68841e-05 -3.01669e-05 0)
(8.17857e-05 -1.65857e-05 0)
(9.64902e-05 -3.70902e-06 0)
(0.00010169 8.12127e-06 0)
(9.83451e-05 1.84656e-05 0)
(8.7744e-05 2.67584e-05 0)
(7.1568e-05 3.22811e-05 0)
(5.19157e-05 3.41508e-05 0)
(3.13286e-05 3.13472e-05 0)
(1.33349e-05 2.28976e-05 0)
(2.75953e-06 8.72945e-06 0)
(3.21935e-06 -1.7068e-05 0)
(1.47356e-05 -3.92204e-05 0)
(3.31432e-05 -5.06119e-05 0)
(5.25496e-05 -5.23524e-05 0)
(6.88814e-05 -4.61401e-05 0)
(7.92361e-05 -3.36627e-05 0)
(8.12008e-05 -1.63838e-05 0)
(7.28321e-05 4.48413e-06 0)
(5.26214e-05 2.7958e-05 0)
(1.94493e-05 5.32588e-05 0)
(-2.74968e-05 7.9765e-05 0)
(-8.87549e-05 0.000106983 0)
(-0.000164649 0.000134524 0)
(-0.000255317 0.000162073 0)
(-0.000360749 0.00018938 0)
(-0.00048081 0.000216247 0)
(-0.000615264 0.000242509 0)
(-0.000763793 0.00026804 0)
(-0.000926006 0.000292734 0)
(-0.00110146 0.000316508 0)
(-0.00128966 0.000339295 0)
(-0.00149008 0.000361043 0)
(-0.00170216 0.00038171 0)
(-0.00192532 0.000401265 0)
(-0.00215896 0.000419685 0)
(-0.00240245 0.000436951 0)
(-0.00265518 0.000453053 0)
(-0.0029165 0.000467983 0)
(-0.00318577 0.000481737 0)
(-0.00346236 0.000494319 0)
(-0.00374561 0.000505731 0)
(-0.00403489 0.000515981 0)
(-0.00432955 0.000525077 0)
(-0.00462895 0.000533031 0)
(-0.00493248 0.000539856 0)
(-0.00523949 0.000545565 0)
(-0.00554938 0.000550174 0)
(-0.00586153 0.000553699 0)
(-0.00617535 0.00055616 0)
(-0.00649024 0.000557572 0)
(-0.00680562 0.000557956 0)
(-0.00712092 0.000557331 0)
(-0.00743557 0.000555718 0)
(-0.00774903 0.000553137 0)
(-0.00806076 0.000549611 0)
(-0.00837024 0.000545162 0)
(-0.00867694 0.00053981 0)
(-0.00898037 0.00053358 0)
(-0.00928003 0.000526493 0)
(-0.00957546 0.000518573 0)
(-0.00986618 0.000509842 0)
(-0.0101517 0.000500325 0)
(-0.0104317 0.000490043 0)
(-0.0107056 0.000479023 0)
(-0.0109732 0.000467286 0)
(-0.0112338 0.000454857 0)
(-0.0114873 0.000441759 0)
(-0.0117332 0.000428018 0)
(-0.0119711 0.000413656 0)
(-0.0122007 0.000398699 0)
(-0.0124217 0.000383171 0)
(-0.0126338 0.000367096 0)
(-0.0128367 0.000350501 0)
(-0.01303 0.000333409 0)
(-0.0132135 0.000315845 0)
(-0.0133869 0.000297836 0)
(-0.0135501 0.000279405 0)
(-0.0137026 0.000260579 0)
(-0.0138445 0.000241384 0)
(-0.0139754 0.000221844 0)
(-0.0140951 0.000201987 0)
(-0.0142035 0.000181837 0)
(-0.0143005 0.000161422 0)
(-0.0143858 0.000140768 0)
(-0.0144594 0.000119902 0)
(-0.0145211 9.88517e-05 0)
(-0.0145708 7.76433e-05 0)
(-0.0146086 5.63051e-05 0)
(-0.0146342 3.48647e-05 0)
(-0.0146477 1.33499e-05 0)
(-0.014649 -8.21137e-06 0)
(-0.0146381 -2.97909e-05 0)
(-0.014615 -5.136e-05 0)
(-0.0145798 -7.28894e-05 0)
(-0.0145323 -9.435e-05 0)
(-0.0144728 -0.000115713 0)
(-0.0144012 -0.000136948 0)
(-0.0143177 -0.000158025 0)
(-0.0142223 -0.000178914 0)
(-0.0141152 -0.000199586 0)
(-0.0139965 -0.000220011 0)
(-0.0138663 -0.000240157 0)
(-0.0137248 -0.000259993 0)
(-0.0135722 -0.00027949 0)
(-0.0134087 -0.000298615 0)
(-0.0132345 -0.000317337 0)
(-0.0130499 -0.000335627 0)
(-0.0128551 -0.000353452 0)
(-0.0126504 -0.000370782 0)
(-0.012436 -0.000387585 0)
(-0.0122123 -0.000403832 0)
(-0.0119796 -0.000419491 0)
(-0.0117383 -0.000434531 0)
(-0.0114886 -0.000448923 0)
(-0.0112311 -0.000462635 0)
(-0.010966 -0.000475637 0)
(-0.0106937 -0.0004879 0)
(-0.0104148 -0.000499395 0)
(-0.0101297 -0.000510091 0)
(-0.00983868 -0.000519963 0)
(-0.00954239 -0.00052898 0)
(-0.00924126 -0.000537117 0)
(-0.00893581 -0.000544347 0)
(-0.00862653 -0.000550643 0)
(-0.00831398 -0.000555981 0)
(-0.00799869 -0.000560336 0)
(-0.00768123 -0.000563684 0)
(-0.00736215 -0.000566002 0)
(-0.00704206 -0.000567271 0)
(-0.00672153 -0.000567468 0)
(-0.00640119 -0.000566576 0)
(-0.00608163 -0.000564576 0)
(-0.00576349 -0.000561452 0)
(-0.00544739 -0.000557189 0)
(-0.00513398 -0.000551772 0)
(-0.0048239 -0.000545191 0)
(-0.0045178 -0.000537435 0)
(-0.00421633 -0.000528498 0)
(-0.00392015 -0.000518373 0)
(-0.00362992 -0.000507057 0)
(-0.0033463 -0.00049455 0)
(-0.00306994 -0.000480854 0)
(-0.00280149 -0.000465976 0)
(-0.0025416 -0.000449926 0)
(-0.0022909 -0.000432716 0)
(-0.00205001 -0.000414365 0)
(-0.00181956 -0.000394897 0)
(-0.00160013 -0.000374339 0)
(-0.0013923 -0.00035273 0)
(-0.00119661 -0.000330113 0)
(-0.00101358 -0.000306543 0)
(-0.000843692 -0.000282087 0)
(-0.000687373 -0.000256823 0)
(-0.000545007 -0.000230848 0)
(-0.000416916 -0.000204279 0)
(-0.000303342 -0.000177258 0)
(-0.000204442 -0.000149956 0)
(-0.000120263 -0.000122583 0)
(-5.07277e-05 -9.53975e-05 0)
(4.3973e-06 -6.87179e-05 0)
(4.55265e-05 -4.29391e-05 0)
(7.32944e-05 -1.85529e-05 0)
(8.85978e-05 3.82684e-06 0)
(9.26432e-05 2.3434e-05 0)
(8.70051e-05 3.9318e-05 0)
(7.36822e-05 5.03145e-05 0)
(5.51094e-05 5.50411e-05 0)
(3.41833e-05 5.19415e-05 0)
(1.49565e-05 3.94627e-05 0)
(3.19272e-06 1.65771e-05 0)
(3.12747e-06 -2.49898e-05 0)
(1.39858e-05 -5.5122e-05 0)
(3.05467e-05 -6.88877e-05 0)
(4.65318e-05 -6.87346e-05 0)
(5.75908e-05 -5.71426e-05 0)
(6.05956e-05 -3.6423e-05 0)
(5.29465e-05 -8.58582e-06 0)
(3.25075e-05 2.46724e-05 0)
(-2.39533e-06 6.19557e-05 0)
(-5.30482e-05 0.000102119 0)
(-0.00012039 0.000144233 0)
(-0.000205074 0.000187547 0)
(-0.000307499 0.00023145 0)
(-0.000427861 0.000275448 0)
(-0.000566172 0.000319138 0)
(-0.0007223 0.000362195 0)
(-0.000895989 0.000404353 0)
(-0.00108688 0.000445395 0)
(-0.00129451 0.000485147 0)
(-0.00151838 0.000523466 0)
(-0.0017579 0.000560237 0)
(-0.00201245 0.000595368 0)
(-0.00228134 0.000628786 0)
(-0.00256389 0.000660434 0)
(-0.00285936 0.000690267 0)
(-0.003167 0.000718253 0)
(-0.00348606 0.000744369 0)
(-0.00381574 0.0007686 0)
(-0.00415527 0.000790936 0)
(-0.00450385 0.000811378 0)
(-0.00486069 0.000829929 0)
(-0.005225 0.000846596 0)
(-0.00559599 0.000861392 0)
(-0.00597286 0.000874334 0)
(-0.00635484 0.00088544 0)
(-0.00674115 0.000894731 0)
(-0.00713102 0.000902231 0)
(-0.00752369 0.000907965 0)
(-0.00791842 0.000911961 0)
(-0.00831446 0.000914248 0)
(-0.0087111 0.000914855 0)
(-0.0091076 0.000913813 0)
(-0.00950328 0.000911157 0)
(-0.00989745 0.000906918 0)
(-0.0102894 0.000901133 0)
(-0.0106786 0.000893835 0)
(-0.0110642 0.000885061 0)
(-0.0114457 0.000874847 0)
(-0.0118225 0.00086323 0)
(-0.0121939 0.000850247 0)
(-0.0125594 0.000835935 0)
(-0.0129185 0.000820332 0)
(-0.0132705 0.000803477 0)
(-0.0136149 0.000785408 0)
(-0.0139512 0.000766165 0)
(-0.0142789 0.000745785 0)
(-0.0145976 0.000724309 0)
(-0.0149067 0.000701776 0)
(-0.0152058 0.000678225 0)
(-0.0154945 0.000653696 0)
(-0.0157724 0.000628231 0)
(-0.016039 0.000601868 0)
(-0.016294 0.00057465 0)
(-0.016537 0.000546617 0)
(-0.0167677 0.00051781 0)
(-0.0169857 0.000488271 0)
(-0.0171907 0.000458041 0)
(-0.0173825 0.000427162 0)
(-0.0175608 0.000395676 0)
(-0.0177252 0.000363627 0)
(-0.0178757 0.000331055 0)
(-0.0180119 0.000298005 0)
(-0.0181337 0.00026452 0)
(-0.0182409 0.000230644 0)
(-0.0183333 0.000196421 0)
(-0.0184108 0.000161895 0)
(-0.0184732 0.000127112 0)
(-0.0185206 9.21171e-05 0)
(-0.0185527 5.69554e-05 0)
(-0.0185695 2.16727e-05 0)
(-0.018571 -1.3685e-05 0)
(-0.0185572 -4.90706e-05 0)
(-0.0185281 -8.44371e-05 0)
(-0.0184836 -0.000119737 0)
(-0.0184239 -0.000154922 0)
(-0.0183489 -0.000189944 0)
(-0.0182588 -0.000224756 0)
(-0.0181537 -0.000259306 0)
(-0.0180337 -0.000293547 0)
(-0.0178989 -0.00032743 0)
(-0.0177495 -0.000360903 0)
(-0.0175858 -0.000393919 0)
(-0.0174078 -0.000426425 0)
(-0.0172159 -0.00045837 0)
(-0.0170103 -0.000489706 0)
(-0.0167913 -0.00052038 0)
(-0.0165592 -0.000550342 0)
(-0.0163142 -0.000579542 0)
(-0.0160568 -0.000607928 0)
(-0.0157873 -0.00063545 0)
(-0.0155062 -0.000662058 0)
(-0.0152137 -0.000687701 0)
(-0.0149103 -0.00071233 0)
(-0.0145965 -0.000735894 0)
(-0.0142728 -0.000758344 0)
(-0.0139396 -0.000779631 0)
(-0.0135975 -0.000799706 0)
(-0.013247 -0.000818522 0)
(-0.0128886 -0.000836032 0)
(-0.012523 -0.000852191 0)
(-0.0121506 -0.000866952 0)
(-0.0117722 -0.000880273 0)
(-0.0113884 -0.000892109 0)
(-0.0109997 -0.000902418 0)
(-0.010607 -0.00091116 0)
(-0.0102108 -0.000918296 0)
(-0.00981181 -0.000923787 0)
(-0.00941083 -0.000927597 0)
(-0.00900854 -0.000929693 0)
(-0.00860568 -0.000930042 0)
(-0.00820303 -0.000928614 0)
(-0.00780133 -0.00092538 0)
(-0.00740136 -0.000920314 0)
(-0.00700392 -0.000913393 0)
(-0.0066098 -0.000904596 0)
(-0.00621979 -0.000893906 0)
(-0.00583471 -0.000881308 0)
(-0.00545536 -0.00086679 0)
(-0.00508257 -0.000850347 0)
(-0.00471714 -0.000831974 0)
(-0.00435988 -0.000811674 0)
(-0.0040116 -0.000789453 0)
(-0.00367311 -0.000765324 0)
(-0.00334519 -0.000739305 0)
(-0.00302863 -0.000711422 0)
(-0.00272419 -0.000681707 0)
(-0.00243262 -0.000650202 0)
(-0.00215463 -0.000616959 0)
(-0.00189091 -0.000582043 0)
(-0.00164214 -0.000545531 0)
(-0.00140892 -0.000507518 0)
(-0.00119182 -0.000468114 0)
(-0.000991359 -0.000427457 0)
(-0.000807976 -0.000385709 0)
(-0.000642036 -0.000343063 0)
(-0.000493812 -0.000299756 0)
(-0.000363466 -0.000256067 0)
(-0.000251028 -0.000212338 0)
(-0.00015638 -0.000168983 0)
(-7.92195e-05 -0.000126502 0)
(-1.90372e-05 -8.5509e-05 0)
(2.49243e-05 -4.67536e-05 0)
(5.37093e-05 -1.11518e-05 0)
(6.86941e-05 2.01789e-05 0)
(7.1638e-05 4.58841e-05 0)
(6.47361e-05 6.43416e-05 0)
(5.06303e-05 7.36511e-05 0)
(3.24516e-05 7.16665e-05 0)
(1.45645e-05 5.61064e-05 0)
(3.17865e-06 2.47186e-05 0)
(2.75694e-06 -3.21097e-05 0)
(1.17777e-05 -6.8735e-05 0)
(2.43724e-05 -8.31967e-05 0)
(3.43668e-05 -7.92554e-05 0)
(3.73321e-05 -6.02168e-05 0)
(3.0037e-05 -2.90458e-05 0)
(9.77834e-06 1.1691e-05 0)
(-2.5668e-05 5.98174e-05 0)
(-7.80779e-05 0.00011351 0)
(-0.000148826 0.000171253 0)
(-0.000238941 0.000231793 0)
(-0.000349143 0.000294097 0)
(-0.000479893 0.000357316 0)
(-0.000631421 0.000420752 0)
(-0.000803762 0.000483829 0)
(-0.000996784 0.000546073 0)
(-0.00121021 0.000607095 0)
(-0.00144366 0.000666576 0)
(-0.00169661 0.000724252 0)
(-0.00196851 0.000779909 0)
(-0.00225868 0.000833371 0)
(-0.00256642 0.000884494 0)
(-0.00289096 0.000933167 0)
(-0.00323149 0.000979296 0)
(-0.00358717 0.00102281 0)
(-0.00395715 0.00106366 0)
(-0.00434052 0.0011018 0)
(-0.00473639 0.00113721 0)
(-0.00514383 0.00116986 0)
(-0.00556193 0.00119976 0)
(-0.00598975 0.0012269 0)
(-0.00642636 0.00125129 0)
(-0.00687083 0.00127295 0)
(-0.00732224 0.0012919 0)
(-0.00777965 0.00130816 0)
(-0.00824216 0.00132176 0)
(-0.00870886 0.00133273 0)
(-0.00917884 0.00134111 0)
(-0.00965122 0.00134694 0)
(-0.0101251 0.00135026 0)
(-0.0105997 0.00135111 0)
(-0.0110741 0.00134953 0)
(-0.0115474 0.00134558 0)
(-0.012019 0.00133929 0)
(-0.0124879 0.00133073 0)
(-0.0129533 0.00131994 0)
(-0.0134146 0.00130697 0)
(-0.0138709 0.00129188 0)
(-0.0143215 0.00127472 0)
(-0.0147658 0.00125554 0)
(-0.0152029 0.0012344 0)
(-0.0156323 0.00121136 0)
(-0.0160533 0.00118647 0)
(-0.0164652 0.00115978 0)
(-0.0168674 0.00113136 0)
(-0.0172593 0.00110126 0)
(-0.0176404 0.00106955 0)
(-0.0180101 0.00103626 0)
(-0.0183678 0.00100148 0)
(-0.018713 0.000965251 0)
(-0.0190452 0.000927637 0)
(-0.019364 0.000888698 0)
(-0.0196689 0.000848494 0)
(-0.0199595 0.000807086 0)
(-0.0202353 0.000764534 0)
(-0.0204959 0.000720901 0)
(-0.0207411 0.000676246 0)
(-0.0209703 0.000630633 0)
(-0.0211834 0.000584124 0)
(-0.02138 0.000536782 0)
(-0.0215599 0.000488669 0)
(-0.0217227 0.00043985 0)
(-0.0218682 0.000390389 0)
(-0.0219962 0.000340352 0)
(-0.0221066 0.000289803 0)
(-0.0221992 0.000238808 0)
(-0.0222737 0.000187434 0)
(-0.0223302 0.000135749 0)
(-0.0223685 8.38186e-05 0)
(-0.0223885 3.17113e-05 0)
(-0.0223902 -2.05045e-05 0)
(-0.0223735 -7.27595e-05 0)
(-0.0223385 -0.000124984 0)
(-0.0222852 -0.000177107 0)
(-0.0222136 -0.000229059 0)
(-0.0221239 -0.000280768 0)
(-0.022016 -0.000332163 0)
(-0.0218902 -0.00038317 0)
(-0.0217466 -0.000433717 0)
(-0.0215853 -0.000483733 0)
(-0.0214066 -0.000533142 0)
(-0.0212107 -0.000581871 0)
(-0.0209978 -0.000629845 0)
(-0.0207683 -0.000676991 0)
(-0.0205224 -0.000723233 0)
(-0.0202604 -0.000768497 0)
(-0.0199828 -0.000812707 0)
(-0.0196899 -0.00085579 0)
(-0.0193821 -0.00089767 0)
(-0.0190599 -0.000938273 0)
(-0.0187237 -0.000977524 0)
(-0.018374 -0.00101535 0)
(-0.0180113 -0.00105168 0)
(-0.0176361 -0.00108643 0)
(-0.0172491 -0.00111955 0)
(-0.0168508 -0.00115094 0)
(-0.0164418 -0.00118055 0)
(-0.0160228 -0.0012083 0)
(-0.0155944 -0.00123413 0)
(-0.0151573 -0.00125796 0)
(-0.0147122 -0.00127973 0)
(-0.0142598 -0.00129938 0)
(-0.013801 -0.00131685 0)
(-0.0133364 -0.00133206 0)
(-0.0128668 -0.00134497 0)
(-0.0123931 -0.00135551 0)
(-0.0119162 -0.00136364 0)
(-0.0114367 -0.00136929 0)
(-0.0109557 -0.00137243 0)
(-0.010474 -0.00137299 0)
(-0.00999245 -0.00137095 0)
(-0.00951201 -0.00136625 0)
(-0.00903358 -0.00135887 0)
(-0.0085581 -0.00134877 0)
(-0.0080865 -0.00133592 0)
(-0.00761974 -0.00132029 0)
(-0.00715876 -0.00130188 0)
(-0.00670452 -0.00128065 0)
(-0.00625799 -0.00125661 0)
(-0.00582011 -0.00122976 0)
(-0.00539184 -0.0012001 0)
(-0.00497413 -0.00116764 0)
(-0.00456791 -0.0011324 0)
(-0.00417412 -0.00109442 0)
(-0.00379366 -0.00105373 0)
(-0.00342742 -0.00101039 0)
(-0.00307627 -0.000964474 0)
(-0.00274104 -0.000916052 0)
(-0.00242253 -0.000865227 0)
(-0.00212149 -0.000812119 0)
(-0.00183864 -0.000756872 0)
(-0.00157461 -0.000699657 0)
(-0.00132998 -0.000640679 0)
(-0.00110526 -0.00058018 0)
(-0.000900835 -0.00051845 0)
(-0.000717008 -0.000455835 0)
(-0.000553942 -0.000392745 0)
(-0.000411656 -0.000329673 0)
(-0.000289997 -0.000267209 0)
(-0.000188614 -0.00020606 0)
(-0.000106927 -0.00014708 0)
(-4.40948e-05 -9.12938e-05 0)
(1.02373e-06 -3.9935e-05 0)
(2.99102e-05 5.51694e-06 0)
(4.4432e-05 4.3298e-05 0)
(4.68925e-05 7.13235e-05 0)
(4.00473e-05 8.71627e-05 0)
(2.71609e-05 8.8045e-05 0)
(1.27011e-05 7.08947e-05 0)
(2.87446e-06 3.22244e-05 0)
(2.21e-06 -3.77805e-05 0)
(8.53822e-06 -7.85509e-05 0)
(1.55446e-05 -9.15007e-05 0)
(1.74945e-05 -8.15467e-05 0)
(1.00905e-05 -5.28022e-05 0)
(-9.92135e-06 -8.87535e-06 0)
(-4.52559e-05 4.71191e-05 0)
(-9.81609e-05 0.00011253 0)
(-0.000170442 0.000185112 0)
(-0.000263518 0.000262978 0)
(-0.000378454 0.000344546 0)
(-0.000516014 0.000428492 0)
(-0.000676683 0.000513718 0)
(-0.000860716 0.000599301 0)
(-0.00106816 0.000684483 0)
(-0.00129887 0.000768625 0)
(-0.00155256 0.0008512 0)
(-0.00182881 0.000931768 0)
(-0.00212707 0.00100997 0)
(-0.00244672 0.0010855 0)
(-0.00278702 0.00115811 0)
(-0.0031472 0.0012276 0)
(-0.00352639 0.00129381 0)
(-0.00392372 0.0013566 0)
(-0.00433822 0.00141588 0)
(-0.00476894 0.00147155 0)
(-0.00521487 0.00152355 0)
(-0.005675 0.00157185 0)
(-0.00614828 0.00161642 0)
(-0.00663368 0.00165723 0)
(-0.00713014 0.0016943 0)
(-0.00763659 0.00172762 0)
(-0.00815199 0.00175721 0)
(-0.00867526 0.00178309 0)
(-0.00920537 0.0018053 0)
(-0.00974127 0.00182387 0)
(-0.0102819 0.00183884 0)
(-0.0108263 0.00185026 0)
(-0.0113733 0.00185818 0)
(-0.0119221 0.00186265 0)
(-0.0124715 0.00186374 0)
(-0.0130207 0.00186149 0)
(-0.0135687 0.00185597 0)
(-0.0141145 0.00184726 0)
(-0.0146572 0.00183541 0)
(-0.0151959 0.00182049 0)
(-0.0157297 0.00180258 0)
(-0.0162578 0.00178174 0)
(-0.0167793 0.00175805 0)
(-0.0172934 0.00173158 0)
(-0.0177992 0.00170242 0)
(-0.0182961 0.00167062 0)
(-0.0187832 0.00163628 0)
(-0.0192597 0.00159947 0)
(-0.0197251 0.00156026 0)
(-0.0201786 0.00151874 0)
(-0.0206195 0.00147498 0)
(-0.0210471 0.00142907 0)
(-0.021461 0.00138109 0)
(-0.0218603 0.00133111 0)
(-0.0222447 0.00127922 0)
(-0.0226135 0.0012255 0)
(-0.0229662 0.00117004 0)
(-0.0233023 0.00111292 0)
(-0.0236213 0.00105422 0)
(-0.0239228 0.000994024 0)
(-0.0242063 0.000932422 0)
(-0.0244715 0.000869498 0)
(-0.0247179 0.000805338 0)
(-0.0249453 0.000740029 0)
(-0.0251532 0.000673659 0)
(-0.0253414 0.000606315 0)
(-0.0255097 0.000538088 0)
(-0.0256577 0.000469066 0)
(-0.0257853 0.000399339 0)
(-0.0258922 0.000329 0)
(-0.0259784 0.00025814 0)
(-0.0260436 0.000186851 0)
(-0.0260877 0.000115227 0)
(-0.0261107 4.33605e-05 0)
(-0.0261125 -2.86527e-05 0)
(-0.0260931 -0.000100717 0)
(-0.0260525 -0.000172736 0)
(-0.0259907 -0.000244614 0)
(-0.0259077 -0.000316252 0)