/*--------------------------------*- C++ -*----------------------------------*\
  =========                 |
  \\      /  F ield         | OpenFOAM: The Open Source CFD Toolbox
   \\    /   O peration     | Website:  https://openfoam.org
    \\  /    A nd           | Version:  7
     \\/     M anipulation  |
\*---------------------------------------------------------------------------*/
FoamFile
{
    version     2.0;
    format      ascii;
    class       volScalarField;
    location    "0.475";
    object      p;
}
// * * * * * * * * * * * * * * * * * * * * * * * * * * * * * * * * * * * * * //

dimensions      [0 2 -2 0 0 0 0];

internalField   nonuniform List<scalar> 
6400
(
4.70838e-06
2.03155e-05
-0.000486096
-0.00151925
-0.00296205
-0.00470425
-0.0066455
-0.00869627
-0.0107793
-0.0128292
-0.0147908
-0.0166179
-0.0182721
-0.0197217
-0.0209408
-0.0219088
-0.0226094
-0.0230305
-0.0231636
-0.0230033
-0.0225471
-0.021795
-0.0207496
-0.0194154
-0.0177988
-0.0159082
-0.0137532
-0.0113454
-0.00869713
-0.00582245
-0.00273632
0.000545214
0.00400516
0.00762566
0.011388
0.0152729
0.0192603
0.0233295
0.0274595
0.0316288
0.0358156
0.0399978
0.0441531
0.0482593
0.052294
0.0562353
0.0600614
0.0637507
0.0672823
0.0706361
0.0737926
0.0767334
0.0794409
0.0818993
0.0840937
0.0860112
0.0876407
0.0889729
0.0900008
0.0907198
0.0911281
0.0912264
0.0910189
0.0905129
0.0897195
0.0886536
0.0873347
0.0857869
0.0840396
0.082128
0.0800939
0.0779865
0.0758633
0.0737912
0.0718479
0.0701219
0.0687102
0.0677171
0.0672493
0.0672872
-3.88946e-06
9.6804e-06
-0.000444091
-0.00132771
-0.00254194
-0.00400757
-0.00564868
-0.00739291
-0.009175
-0.0109377
-0.0126313
-0.0142132
-0.0156475
-0.0169037
-0.0179569
-0.0187865
-0.0193765
-0.0197142
-0.0197906
-0.0195996
-0.019138
-0.0184049
-0.0174019
-0.0161324
-0.0146019
-0.0128174
-0.0107878
-0.00852314
-0.00603489
-0.00333576
-0.000439547
0.00263892
0.00588388
0.00927869
0.012806
0.0164476
0.0201849
0.0239985
0.0278688
0.0317755
0.0356982
0.0396163
0.0435089
0.0473552
0.0511345
0.054826
0.0584095
0.0618651
0.0651735
0.0683157
0.071274
0.0740314
0.0765719
0.078881
0.0809453
0.0827534
0.0842951
0.0855627
0.0865502
0.0872542
0.0876736
0.0878102
0.0876685
0.0872564
0.0865853
0.0856701
0.0845298
0.0831877
0.0816721
0.0800161
0.0782586
0.0764446
0.0746257
0.0728602
0.0712135
0.069757
0.0685637
0.0677086
0.0672854
0.0673244
0.00050286
0.000464861
1.08602e-05
-0.000805298
-0.00189632
-0.0031989
-0.00465184
-0.00619505
-0.0077729
-0.00933534
-0.0108381
-0.0122424
-0.013515
-0.0146275
-0.015556
-0.016281
-0.0167866
-0.0170605
-0.0170934
-0.016879
-0.0164136
-0.0156958
-0.0147265
-0.0135086
-0.0120465
-0.0103468
-0.00841711
-0.00626684
-0.00390651
-0.00134786
0.00139626
0.00431201
0.00738461
0.0105985
0.0139372
0.0173838
0.0209205
0.0245292
0.0281913
0.0318876
0.0355989
0.0393057
0.0429882
0.0466269
0.0502022
0.0536945
0.0570849
0.0603545
0.0634853
0.0664596
0.0692608
0.0718729
0.0742814
0.0764725
0.0784342
0.0801559
0.0816286
0.0828453
0.0838009
0.0844926
0.0849199
0.0850852
0.0849933
0.0846522
0.084073
0.0832705
0.0822629
0.0810725
0.0797259
0.0782539
0.0766925
0.0750824
0.0734696
0.0719051
0.0704449
0.0691482
0.0680742
0.0672831
0.0668605
0.0668581
0.00153593
0.00135094
0.000827126
7.6838e-06
-0.00104069
-0.00226441
-0.00361171
-0.00503186
-0.00647724
-0.00790425
-0.0092737
-0.0105509
-0.0117054
-0.0127112
-0.0135461
-0.0141917
-0.0146328
-0.0148577
-0.0148573
-0.0146254
-0.014158
-0.0134536
-0.0125127
-0.0113375
-0.00993222
-0.00830256
-0.00645571
-0.00440024
-0.00214596
0.000296129
0.002914
0.00569461
0.00862403
0.0116875
0.0148696
0.0181541
0.0215242
0.0249628
0.028452
0.0319738
0.0355099
0.0390416
0.0425503
0.0460174
0.0494242
0.0527522
0.0559834
0.0591001
0.0620849
0.0649214
0.0675938
0.0700871
0.0723876
0.0744825
0.0763605
0.0780117
0.079428
0.0806029
0.0815319
0.0822126
0.082645
0.0828315
0.0827771
0.0824895
0.0819797
0.0812615
0.0803523
0.0792732
0.0780487
0.0767074
0.0752819
0.0738091
0.0723296
0.0708882
0.069533
0.0683145
0.0672829
0.06649
0.0660037
0.0658681
0.002985
0.0025735
0.00192182
0.00104948
-6.31956e-06
-0.00120071
-0.00248981
-0.0038313
-0.00518492
-0.00651316
-0.00778183
-0.00896023
-0.0100212
-0.0109411
-0.0116997
-0.01228
-0.0126679
-0.0128523
-0.0128248
-0.0125791
-0.0121115
-0.0114204
-0.0105059
-0.00937014
-0.00801675
-0.00645099
-0.00467951
-0.00271029
-0.000552489
0.00178358
0.00428659
0.00694424
0.00974339
0.0126701
0.0157096
0.0188467
0.0220653
0.0253492
0.0286814
0.0320448
0.0354218
0.0387948
0.042146
0.0454577
0.0487121
0.0518917
0.0549793
0.0579579
0.0608114
0.0635239
0.0660805
0.0684671
0.0706706
0.0726792
0.0744821
0.0760701
0.0774355
0.0785725
0.0794769
0.0801467
0.080582
0.0807851
0.080761
0.0805171
0.0800637
0.079414
0.0785842
0.0775936
0.0764649
0.0752242
0.0739007
0.0725274
0.0711399
0.069777
0.0684798
0.0672908
0.0662532
0.0654106
0.0648042
0.0644564
0.00474792
0.00405951
0.00323683
0.00227127
0.00116666
-3.99411e-05
-0.00131127
-0.00261261
-0.00391039
-0.00517278
-0.00637032
-0.00747623
-0.00846659
-0.00932035
-0.0100193
-0.0105481
-0.0108938
-0.0110463
-0.0109977
-0.0107423
-0.0102765
-0.00959864
-0.00870896
-0.00760929
-0.00630304
-0.00479507
-0.0030916
-0.00120009
0.000870823
0.00311144
0.00551106
0.00805805
0.01074
0.0135436
0.0164549
0.0194594
0.0225418
0.0256867
0.0288779
0.0320991
0.0353335
0.0385642
0.0417745
0.0449472
0.0480654
0.0511126
0.0540721
0.0569279
0.0596645
0.0622668
0.0647207
0.0670127
0.0691303
0.0710624
0.0727987
0.0743306
0.0756507
0.0767536
0.0776354
0.0782941
0.07873
0.0789452
0.0789444
0.0787346
0.0783254
0.077729
0.0769602
0.0760369
0.0749795
0.0738116
0.0725592
0.0712513
0.0699192
0.068596
0.0673165
0.0661159
0.0650315
0.0640997
0.0633304
0.0627194
0.00673394
0.00574041
0.00471689
0.00362651
0.00243915
0.00118535
-0.000103072
-0.0013981
-0.00267217
-0.00389857
-0.00505225
-0.0061102
-0.00705163
-0.00785809
-0.00851349
-0.00900411
-0.00931852
-0.00944749
-0.00938391
-0.00912267
-0.00866056
-0.00799612
-0.00712958
-0.00606272
-0.00479878
-0.00334238
-0.00169938
0.000123141
0.00211702
0.00427307
0.00658112
0.00903014
0.0116083
0.0143029
0.0171009
0.0199881
0.0229503
0.0259724
0.0290392
0.0321349
0.0352436
0.0383492
0.0414355
0.0444862
0.047485
0.0504161
0.0532635
0.056012
0.0586466
0.061153
0.0635175
0.0657272
0.0677703
0.0696359
0.0713144
0.0727974
0.0740779
0.0751505
0.0760117
0.0766594
0.0770938
0.0773167
0.0773325
0.0771476
0.0767707
0.076213
0.0754879
0.0746116
0.0736025
0.0724815
0.0712718
0.0699986
0.0686888
0.067371
0.066074
0.064827
0.063662
0.0626095
0.0616471
0.0607438
0.00886376
0.00755164
0.0063082
0.00506984
0.00377366
0.00244495
0.00111113
-0.000205563
-0.00148289
-0.00269874
-0.00383212
-0.00486352
-0.00577513
-0.00655105
-0.0071773
-0.00764189
-0.00793479
-0.00804791
-0.00797501
-0.00771164
-0.00725503
-0.00660405
-0.00575908
-0.00472194
-0.00349579
-0.00208509
-0.000495467
0.00126633
0.00319251
0.00527429
0.00750199
0.00986508
0.0123523
0.0149515
0.0176501
0.0204347
0.0232916
0.0262065
0.0291646
0.0321509
0.0351502
0.0381468
0.0411254
0.0440701
0.0469655
0.0497961
0.0525468
0.0552027
0.0577495
0.0601733
0.0624611
0.0646003
0.0665796
0.0683883
0.0700173
0.0714583
0.0727045
0.0737508
0.0745934
0.0752303
0.0756614
0.0758883
0.0759147
0.0757463
0.0753911
0.074859
0.0741623
0.0733151
0.072334
0.0712374
0.0700457
0.0687807
0.0674655
0.0661244
0.0647812
0.0634596
0.0621877
0.0609911
0.059816
0.0586057
0.0110703
0.0094357
0.00796125
0.00655871
0.00513427
0.00370916
0.00230741
0.000946257
-0.000356676
-0.00158338
-0.00271651
-0.00373977
-0.0046382
-0.00539827
-0.00600809
-0.00645739
-0.00673757
-0.00684172
-0.00676452
-0.00650227
-0.00605274
-0.00541518
-0.00459022
-0.00357981
-0.00238713
-0.00101655
0.000526465
0.00223539
0.00410274
0.00612007
0.00827811
0.0105668
0.0129752
0.0154918
0.0181045
0.0208005
0.0235666
0.0263889
0.0292534
0.0321456
0.0350507
0.037954
0.0408402
0.0436944
0.0465014
0.0492465
0.051915
0.0544924
0.056965
0.0593192
0.0615423
0.0636223
0.0655479
0.067309
0.0688964
0.0703022
0.0715195
0.0725432
0.0733694
0.0739961
0.0744225
0.0746501
0.0746819
0.074523
0.0741801
0.0736622
0.0729802
0.0721466
0.071176
0.0700844
0.0688896
0.0676104
0.0662667
0.0648786
0.063466
0.0620477
0.0606489
0.0592914
0.0578918
0.0563695
0.0132978
0.0113425
0.00963156
0.008054
0.00648714
0.0049492
0.00346171
0.00203769
0.000690745
-0.000564687
-0.00171452
-0.0027454
-0.00364496
-0.00440196
-0.00500646
-0.00544988
-0.00572507
-0.00582628
-0.00574917
-0.00549081
-0.00504959
-0.00442521
-0.00361862
-0.00263196
-0.0014685
-0.000132603
0.00137035
0.003034
0.00485108
0.00681343
0.0089121
0.0111374
0.0134788
0.0159252
0.018465
0.0210858
0.0237748
0.0265188
0.0293042
0.032117
0.034943
0.0377676
0.0405765
0.0433549
0.0460883
0.0487623
0.0513625
0.053875
0.0562864
0.0585834
0.0607536
0.0627852
0.0646673
0.0663897
0.0679434
0.0693206
0.0705144
0.0715194
0.0723317
0.0729489
0.07337
0.0735957
0.0736286
0.0734729
0.0731344
0.0726208
0.0719418
0.0711083
0.0701329
0.0690297
0.067814
0.0665018
0.0651101
0.0636559
0.0621552
0.0606231
0.0590823
0.0575524
0.055922
0.0540886
0.0154992
0.0132285
0.0112795
0.00952009
0.00780077
0.00613768
0.00455058
0.00304899
0.00164306
0.000344143
-0.000836571
-0.00188837
-0.00280125
-0.00356611
-0.00417484
-0.00462051
-0.00489734
-0.00500075
-0.00492742
-0.00467519
-0.00424312
-0.00363141
-0.00284137
-0.0018754
-0.000736915
0.000569659
0.00203897
0.00366474
0.00543988
0.00735643
0.00940572
0.0115783
0.0138641
0.0162523
0.0187317
0.0212902
0.0239157
0.0265951
0.0293155
0.0320631
0.0348242
0.0375847
0.0403306
0.0430476
0.0457216
0.0483383
0.0508839
0.0533448
0.0557076
0.0579595
0.0600882
0.0620822
0.0639304
0.0656231
0.0671509
0.0685061
0.0696818
0.0706724
0.0714736
0.0720826
0.072498
0.0727202
0.0727508
0.0725931
0.0722523
0.0717347
0.0710487
0.0702037
0.0692107
0.0680819
0.0668301
0.0654693
0.0640138
0.0624777
0.060874
0.0592148
0.0575213
0.0558111
0.0539474
0.0518072
0.0176353
0.0150561
0.0128698
0.0109247
0.00904603
0.00724873
0.00555142
0.00396066
0.00248373
0.00112928
-9.40067e-05
-0.00117779
-0.00211422
-0.00289612
-0.00351716
-0.00397191
-0.00425594
-0.00436583
-0.00429922
-0.00405479
-0.00363226
-0.00303236
-0.00225681
-0.00130833
-0.000190522
0.00109207
0.00253407
0.00412925
0.00587059
0.00775032
0.00975994
0.0118903
0.0141315
0.0164731
0.0189042
0.0214132
0.0239881
0.0266163
0.0292852
0.0319814
0.0346916
0.0374021
0.0400991
0.0427686
0.0453968
0.0479699
0.0504742
0.0528962
0.0552229
0.0574416
0.05954
0.0615068
0.063331
0.0650026
0.0665125
0.0678526
0.0690158
0.0699963
0.0707896
0.0713923
0.0718026
0.07202
0.0720458
0.0718823
0.0715336
0.0710051
0.0703038
0.0694377
0.0684163
0.0672499
0.0659497
0.0645274
0.062995
0.0613644
0.0596461
0.0578496
0.0559954
0.0541002
0.0520029
0.0495618
0.0196725
0.0167925
0.0143712
0.0122385
0.010196
0.00825805
0.00644251
0.0047536
0.00319614
0.00177648
0.000501107
-0.00062373
-0.00159212
-0.00239868
-0.00303868
-0.00350813
-0.00380387
-0.00392361
-0.00386594
-0.00363036
-0.00321726
-0.00262794
-0.00186457
-0.000930171
0.000171374
0.00143539
0.0028564
0.00442818
0.00614376
0.00799547
0.00997496
0.0120732
0.0142807
0.0165871
0.0189818
0.0214535
0.0239905
0.0265805
0.0292112
0.0318695
0.0345424
0.0372165
0.0398782
0.0425138
0.0451098
0.0476525
0.0501284
0.0525243
0.054827
0.0570241
0.0591035
0.0610535
0.0628633
0.0645228
0.0660226
0.0673546
0.0685112
0.0694865
0.0702755
0.0708743
0.0712805
0.0714931
0.0715124
0.0713402
0.0709794
0.0704345
0.069711
0.068816
0.0677572
0.0665436
0.0651847
0.0636902
0.0620704
0.0603353
0.0584932
0.0565518
0.0545313
0.0524481
0.0501185
0.047383
0.0215823
0.0184089
0.0157557
0.0134349
0.011226
0.00914276
0.00720309
0.00540916
0.00376374
0.00227122
0.000936156
-0.000237035
-0.00124419
-0.00208154
-0.00274583
-0.00323444
-0.00354541
-0.0036775
-0.00363024
-0.00340393
-0.00299966
-0.00241928
-0.00166542
-0.000741488
0.00034838
0.0015993
0.00300569
0.00456126
0.00625905
0.00809145
0.0100502
0.0121264
0.0143108
0.0165931
0.018963
0.0214095
0.0239209
0.0264855
0.0290909
0.0317245
0.0343734
0.0370245
0.0396643
0.0422794
0.0448564
0.0473818
0.0498421
0.0522242
0.0545151
0.0567023
0.0587735
0.0607173
0.0625224
0.0641787
0.0656767
0.0670077
0.0681642
0.0691395
0.0699282
0.0705261
0.0709301
0.0711385
0.0711508
0.0709679
0.0705919
0.0700262
0.0692755
0.0683452
0.0672419
0.0659732
0.0645471
0.062972
0.0612564
0.0594087
0.0574358
0.0553438
0.053153
0.05088
0.0483199
0.0452964
0.0233395
0.01988
0.0169982
0.0144898
0.0121129
0.00988137
0.00781329
0.00590921
0.00417015
0.00259882
0.00119812
-2.91617e-05
-0.00108042
-0.00195336
-0.00264609
-0.00315722
-0.00348595
-0.00363205
-0.00359594
-0.00337871
-0.00298213
-0.00240861
-0.00166127
-0.000743891
0.000339084
0.00158255
0.00298077
0.00452735
0.00621531
0.00803704
0.00998434
0.0120485
0.0142201
0.0164893
0.0188459
0.0212789
0.0237771
0.0263287
0.0289216
0.0315434
0.0341814
0.0368226
0.0394537
0.0420615
0.0446325
0.0471534
0.0496108
0.0519916
0.0542827
0.0564715
0.0585457
0.0604937
0.062304
0.0639664
0.0654709
0.0668086
0.0679714
0.0689524
0.0697456
0.0703462
0.0707506
0.0709562
0.0709618
0.0707674
0.0703743
0.069785
0.0690028
0.0680324
0.0668791
0.0655491
0.0640492
0.0623866
0.0605685
0.058602
0.0564928
0.0542457
0.0518817
0.0494181
0.0466296
0.0433236
0.0249221
0.0211828
0.0180759
0.0153808
0.0128352
0.0104535
0.00825407
0.00623609
0.00439915
0.00274452
0.00127366
-1.20743e-05
-0.00111149
-0.0020236
-0.00274778
-0.00328381
-0.00363192
-0.00379287
-0.00376794
-0.00355898
-0.0031684
-0.00259922
-0.00185502
-0.000939988
0.000141116
0.00138294
0.00277955
0.00432445
0.00601056
0.00783026
0.00977538
0.0118372
0.0140065
0.0162735
0.018628
0.0210592
0.0235561
0.026107
0.0287001
0.0313229
0.0339629
0.0366072
0.0392427
0.0418561
0.0444342
0.0469634
0.0494305
0.0518222
0.0541255
0.0563276
0.058416
0.0603788
0.0622045
0.0638823
0.0654019
0.0667542
0.0679307
0.0689236
0.0697266
0.0703342
0.0707421
0.0709472
0.0709474
0.0707418
0.0703308
0.0697159
0.0688997
0.0678857
0.0666781
0.065282
0.0637032
0.0619477
0.0600218
0.0579316
0.0556818
0.0532763
0.0507371
0.0480822
0.045067
0.0414832
0.0263101
0.0222966
0.0189677
0.0160871
0.0133729
0.0108399
0.00850707
0.00637257
0.0044347
0.00269351
0.00114919
-0.000198171
-0.00134863
-0.00230242
-0.00306005
-0.00362239
-0.00399066
-0.00416652
-0.0041521
-0.00394997
-0.0035632
-0.00299536
-0.00225054
-0.00133332
-0.000248793
0.000997405
0.00239914
0.00394976
0.00564209
0.00746844
0.00942063
0.0114899
0.0136672
0.0159427
0.0183063
0.0207474
0.0232549
0.0258174
0.0284229
0.0310594
0.0337142
0.0363745
0.0390273
0.0416594
0.0442573
0.0468077
0.0492971
0.0517121
0.0540397
0.0562668
0.0583807
0.0603693
0.0622206
0.0639235
0.0654675
0.0668428
0.0680403
0.069052
0.0698707
0.0704904
0.0709059
0.0711135
0.0711104
0.0708948
0.0704662
0.0698252
0.0689734
0.0679133
0.0666484
0.0651829
0.0635213
0.0616689
0.059631
0.0574133
0.0550194
0.0524529
0.0497369
0.0468904
0.0436498
0.0397918
0.0274855
0.0232024
0.0196542
0.0165894
0.0137067
0.0110219
0.00855452
0.00630176
0.00426089
0.0024309
0.000810876
-0.000600237
-0.00180362
-0.0028006
-0.00359276
-0.00418194
-0.00457033
-0.00476045
-0.00475519
-0.00455786
-0.00417215
-0.00360221
-0.00285258
-0.00192828
-0.000834764
0.00042207
0.00183585
0.00339975
0.00510645
0.0069482
0.00891674
0.0110034
0.0131989
0.0154936
0.0178775
0.0203399
0.0228699
0.025456
0.0280865
0.0307491
0.0334315
0.0361207
0.0388037
0.0414672
0.0440979
0.0466823
0.0492066
0.0516575
0.0540216
0.0562856
0.0584366
0.060462
0.0623496
0.0640879
0.0656657
0.0670727
0.0682994
0.0693372
0.0701783
0.0708158
0.0712439
0.071458
0.0714545
0.071231
0.070786
0.0701193
0.0692315
0.0681243
0.0668003
0.0652629
0.0635157
0.0615634
0.0594106
0.0570623
0.0545217
0.051792
0.0488976
0.0458589
0.0423937
0.0382638
0.0284312
0.0238822
0.0201171
0.0168692
0.0138186
0.0109818
0.00837911
0.00600706
0.0038619
0.00194173
0.000244655
-0.00123142
-0.00248868
-0.00352949
-0.00435639
-0.00497217
-0.00537988
-0.00558287
-0.00558479
-0.00538964
-0.00500173
-0.00442574
-0.00366673
-0.00273012
-0.00162171
-0.000347722
0.00108524
0.00267014
0.00439952
0.00626551
0.00825977
0.0103735
0.0125976
0.0149223
0.0173376
0.0198328
0.022397
0.0250189
0.0276866
0.030388
0.0331106
0.0358415
0.0385677
0.0412757
0.0439521
0.0465832
0.0491553
0.0516547
0.0540677
0.0563808
0.0585806
0.0606543
0.0625892
0.0643733
0.0659949
0.0674431
0.0687078
0.0697797
0.0706503
0.0713121
0.0717584
0.0719839
0.0719841
0.0717557
0.0712966
0.0706056
0.0696825
0.0685281
0.0671442
0.0655334
0.063699
0.0616446
0.0593745
0.0568933
0.0542039
0.0513092
0.048235
0.0450033
0.0413135
0.0369127
0.0291311
0.0243189
0.0203387
0.0169087
0.0136907
0.010702
0.00796384
0.00547199
0.00322194
0.00121095
-0.00056377
-0.00210522
-0.00341653
-0.004501
-0.00536207
-0.00600343
-0.00642896
-0.00664278
-0.00664927
-0.0064531
-0.00605919
-0.00547277
-0.00469936
-0.00374481
-0.0026153
-0.00131736
0.000142158
0.00175599
0.00351652
0.00541572
0.00744516
0.00959601
0.011859
0.0142244
0.0166822
0.0192217
0.0218321
0.0245018
0.0272191
0.0299717
0.0327473
0.0355328
0.038315
0.0410806
0.0438157
0.0465066
0.0491394
0.0517001
0.0541746
0.0565492
0.0588101
0.0609438
0.0629375
0.0647783
0.0664542
0.0679536
0.0692657
0.0703804
0.0712885
0.0719818
0.0724529
0.0726954
0.0727042
0.0724751
0.072005
0.071292
0.0703351
0.0691344
0.0676909
0.0660064
0.0640837
0.061926
0.059537
0.0569211
0.054081
0.0510195
0.0477641
0.0443381
0.0404231
0.0357511
0.0295696
0.0244961
0.020302
0.0166908
0.0133059
0.0101655
0.00729188
0.00468019
0.00232515
0.000223297
-0.00162897
-0.0032355
-0.0046003
-0.00572753
-0.00662151
-0.00728673
-0.00772789
-0.00794985
-0.00795771
-0.00775677
-0.00735255
-0.0067508
-0.00595756
-0.00497907
-0.0038219
-0.0024929
-0.000999194
0.000651725
0.00245205
0.00439359
0.00646781
0.00866577
0.0109781
0.0133951
0.0159066
0.018502
0.0211702
0.0238999
0.0266791
0.0294957
0.032337
0.03519
0.0380414
0.0408775
0.0436846
0.0464486
0.0491551
0.0517901
0.0543391
0.0567879
0.0591224
0.0613285
0.0633927
0.0653018
0.0670431
0.0686042
0.0699737
0.0711407
0.0720951
0.0728279
0.0733311
0.0735973
0.0736204
0.0733955
0.0729187
0.072187
0.071199
0.0699538
0.0684517
0.066694
0.0646829
0.0624211
0.0599122
0.0571602
0.0541678
0.0509379
0.0474996
0.0438778
0.0397359
0.0347911
0.0297315
0.0243976
0.0199903
0.0161984
0.012647
0.00935526
0.00634647
0.00361522
0.00115556
-0.00103667
-0.00296581
-0.0046365
-0.00605358
-0.00722202
-0.00814695
-0.00883367
-0.00928764
-0.00951445
-0.00951987
-0.00930984
-0.00889048
-0.00826807
-0.0074491
-0.00644029
-0.00524854
-0.00388105
-0.00234524
-0.000648842
0.00120013
0.00319334
0.00532209
0.00757731
0.00994958
0.0124291
0.0150055
0.0176683
0.0204064
0.0232082
0.0260619
0.028955
0.0318749
0.0348084
0.0377421
0.0406622
0.0435546
0.0464049
0.0491987
0.0519213
0.054558
0.0570942
0.0595151
0.0618063
0.0639536
0.0659431
0.0677613
0.0693954
0.070833
0.0720624
0.0730728
0.0738542
0.0743975
0.0746948
0.0747391
0.0745243
0.0740458
0.0732999
0.0722841
0.0709971
0.0694384
0.0676087
0.0655097
0.0631438
0.0605144
0.0576254
0.0544793
0.0510793
0.047456
0.0436363
0.0392652
0.0340448
0.0296015
0.0240074
0.0193871
0.0154146
0.011697
0.0082543
0.00511078
0.00226054
-0.000303023
-0.0025847
-0.00458952
-0.0063229
-0.00779043
-0.0089979
-0.00995122
-0.0106564
-0.0111198
-0.0113475
-0.0113461
-0.0111222
-0.0106823
-0.0100334
-0.00918242
-0.00813646
-0.00690286
-0.00548913
-0.003903
-0.00215245
-0.000245717
0.00180867
0.00400185
0.00632466
0.00876754
0.0113206
0.0139734
0.0167154
0.0195352
0.0224215
0.0253621
0.0283445
0.031356
0.0343832
0.0374126
0.04043
0.0434213
0.0463717
0.0492663
0.0520902
0.0548283
0.0574653
0.059986
0.0623755
0.0646189
0.0667014
0.068609
0.070328
0.0718451
0.073148
0.0742248
0.0750645
0.0756572
0.075994
0.076067
0.0758693
0.0753952
0.0746403
0.0736012
0.0722759
0.0706633
0.0687637
0.066578
0.0641086
0.0613585
0.0583316
0.0550306
0.0514585
0.0476482
0.0436281
0.0390244
0.0335244
0.0291643
0.0233093
0.0184756
0.0143226
0.0104389
0.0068455
0.00356778
0.000599336
-0.00206708
-0.00443686
-0.00651571
-0.00830977
-0.0098254
-0.0110691
-0.0120477
-0.0127678
-0.0132365
-0.0134607
-0.0134476
-0.0132043
-0.0127381
-0.0120563
-0.0111665
-0.0100762
-0.00879305
-0.00732497
-0.00567999
-0.00386634
-0.0018925
0.000232797
0.00250055
0.00490143
0.00742576
0.0100635
0.0128042
0.0156371
0.0185509
0.021534
0.0245741
0.0276588
0.030775
0.0339093
0.0370478
0.0401763
0.0432802
0.0463445
0.049354
0.0522933
0.0551467
0.0578985
0.060533
0.0630345
0.0653875
0.0675765
0.0695865
0.0714031
0.0730121
0.0744001
0.0755546
0.0764634
0.0771157
0.0775014
0.0776117
0.0774389
0.0769763
0.0762186
0.0751615
0.0738024
0.0721396
0.0701726
0.0679022
0.0653302
0.0624596
0.0592944
0.0558371
0.0520913
0.0480913
0.0438676
0.0390274
0.0332425
0.0284042
0.0222869
0.0172391
0.0129051
0.00885521
0.00511146
0.00170017
-0.00138552
-0.00415346
-0.00660964
-0.00876044
-0.0106127
-0.0121735
-0.0134502
-0.0144502
-0.0151811
-0.0156505
-0.0158661
-0.0158357
-0.0155671
-0.0150682
-0.0143468
-0.0134109
-0.0122686
-0.0109278
-0.00939695
-0.00768424
-0.00579825
-0.00374767
-0.00154146
0.000811195
0.00330082
0.00591761
0.0086514
0.0114917
0.0144275
0.0174475
0.0205398
0.0236924
0.0268923
0.0301265
0.0333814
0.0366428
0.0398962
0.0431268
0.0463192
0.0494579
0.052527
0.0555102
0.0583913
0.061154
0.0637818
0.0662585
0.068568
0.0706943
0.072622
0.074336
0.075822
0.0770663
0.0780559
0.0787788
0.0792239
0.0793813
0.0792422
0.0787991
0.0780457
0.0769771
0.0755895
0.0738807
0.0718499
0.0694971
0.0668242
0.0638338
0.0605299
0.0569153
0.0529935
0.0488011
0.0443702
0.0392886
0.0332122
0.0273053
0.0209235
0.0156602
0.0111446
0.00692832
0.0030344
-0.000509779
-0.00371158
-0.00657946
-0.00912002
-0.0113403
-0.0132478
-0.0148504
-0.0161562
-0.0171734
-0.0179102
-0.0183751
-0.0185765
-0.0185228
-0.0182224
-0.0176838
-0.0169155
-0.0159258
-0.0147233
-0.0133164
-0.0117139
-0.0099242
-0.00795629
-0.00581906
-0.00352169
-0.00107355
0.00151572
0.00423616
0.00707752
0.0100291
0.01308
0.0162185
0.0194329
0.0227107
0.0260391
0.0294048
0.0327939
0.0361922
0.0395847
0.0429564
0.0462915
0.049574
0.0527875
0.0559155
0.0589409
0.0618468
0.0646159
0.0672313
0.069676
0.0719332
0.0739864
0.0758195
0.0774171
0.0787645
0.0798475
0.0806531
0.0811691
0.0813843
0.0812889
0.0808745
0.0801336
0.0790605
0.0776508
0.0759013
0.0738107
0.0713788
0.0686069
0.0654977
0.0620551
0.0582819
0.054182
0.049794
0.0451518
0.0398233
0.0334478
0.0258508
0.0192018
0.0137212
0.00902301
0.00463997
0.000596038
-0.00308031
-0.00639694
-0.00936294
-0.0119855
-0.0142723
-0.0162317
-0.0178723
-0.0192027
-0.0202322
-0.0209697
-0.0214243
-0.0216051
-0.0215214
-0.0211822
-0.0205964
-0.0197732
-0.0187216
-0.0174503
-0.0159684
-0.0142849
-0.0124087
-0.0103489
-0.00811484
-0.00571578
-0.00316132
-0.000461287
0.00237423
0.00533483
0.00840976
0.0115879
0.0148575
0.0182067
0.021623
0.0250932
0.028604
0.0321413
0.0356905
0.0392366
0.042764
0.0462566
0.049698
0.0530714
0.0563594
0.0595447
0.0626093
0.0655355
0.0683052
0.0709006
0.073304
0.075498
0.0774652
0.0791892
0.0806539
0.0818442
0.0827457
0.083345
0.08363
0.0835894
0.0832138
0.0824947
0.0814254
0.0800007
0.0782167
0.0760713
0.073564
0.0706957
0.0674689
0.0638877
0.0599549
0.0556747
0.0510876
0.0462295
0.0406476
0.0339644
0.0240234
0.0171039
0.0114038
0.00652172
0.00197132
-0.00222252
-0.00603026
-0.0094603
-0.0125224
-0.0152242
-0.0175744
-0.0195817
-0.0212558
-0.022606
-0.0236423
-0.0243744
-0.0248123
-0.0249658
-0.0248448
-0.024459
-0.0238181
-0.0229317
-0.0218092
-0.0204601
-0.0188938
-0.0171196
-0.0151468
-0.012985
-0.0106434
-0.00813186
-0.00546
-0.00263783
0.000324393
0.00341614
0.00662654
0.00994433
0.0133578
0.0168549
0.0204228
0.0240485
0.0277182
0.0314177
0.0351323
0.0388466
0.0425447
0.0462101
0.0498259
0.0533747
0.0568388
0.0601999
0.0634395
0.066539
0.0694795
0.072242
0.074808
0.0771588
0.0792762
0.0811422
0.0827397
0.0840522
0.085064
0.0857604
0.0861281
0.0861547
0.0858292
0.0851423
0.0840862
0.0826546
0.080843
0.0786487
0.0760704
0.0731088
0.0697663
0.0660469
0.0619535
0.0574905
0.0527005
0.0476214
0.0417791
0.0347784
0.0218052
0.014611
0.00868878
0.00362132
-0.00109718
-0.00544089
-0.00937921
-0.0129211
-0.0160769
-0.0188551
-0.0212648
-0.0233158
-0.0250184
-0.0263829
-0.0274199
-0.0281401
-0.0285542
-0.0286729
-0.0285067
-0.028066
-0.0273612
-0.0264025
-0.0251999
-0.0237634
-0.0221027
-0.0202277
-0.018148
-0.0158733
-0.0134135
-0.0107783
-0.00797761
-0.0050217
-0.00192091
0.0013141
0.00467233
0.00814242
0.0117126
0.0153706
0.0191036
0.0228984
0.0267411
0.0306173
0.0345119
0.0384093
0.0422933
0.0461471
0.0499532
0.0536937
0.0573502
0.0609038
0.0643353
0.0676251
0.0707535
0.0737005
0.0764463
0.0789711
0.0812556
0.0832806
0.0850274
0.0864781
0.0876159
0.0884245
0.0888892
0.0889963
0.0887336
0.0880905
0.087058
0.0856289
0.0837977
0.081561
0.0789169
0.0758658
0.0724098
0.0685529
0.064298
0.0596496
0.0546528
0.0493473
0.0432365
0.0359075
0.0191772
0.0117037
0.00555621
0.000301579
-0.00458594
-0.00907953
-0.0131475
-0.0167995
-0.0200464
-0.0228976
-0.0253628
-0.0274527
-0.0291782
-0.0305508
-0.0315819
-0.0322829
-0.0326655
-0.0327411
-0.0325211
-0.0320166
-0.0312386
-0.030198
-0.0289054
-0.0273712
-0.0256057
-0.0236192
-0.0214217
-0.0190232
-0.0164337
-0.0136633
-0.0107223
-0.00762073
-0.00436928
-0.000978707
0.00253991
0.0061751
0.00991499
0.0137472
0.017659
0.0216368
0.0256667
0.0297341
0.0338236
0.0379194
0.0420049
0.0460629
0.0500756
0.0540244
0.0578903
0.0616536
0.0652945
0.0687924
0.0721266
0.0752762
0.0782201
0.0809373
0.083407
0.0856088
0.0875226
0.0891292
0.0904098
0.091347
0.0919243
0.0921269
0.0919409
0.0913544
0.0903572
0.0889409
0.0870992
0.0848277
0.0821239
0.0789877
0.0754209
0.0714275
0.0670102
0.0621741
0.056966
0.0514281
0.0450404
0.0373712
0.0161195
0.00836144
0.00198518
-0.00345871
-0.0085163
-0.0131598
-0.0173566
-0.0211167
-0.0244519
-0.0273723
-0.0298883
-0.0320116
-0.0337541
-0.035128
-0.0361457
-0.0368196
-0.0371622
-0.0371858
-0.0369026
-0.0363245
-0.0354633
-0.0343305
-0.0329373
-0.0312946
-0.0294134
-0.0273042
-0.0249775
-0.0224436
-0.0197128
-0.0167955
-0.013702
-0.0104427
-0.00702828
-0.00346961
0.000222122
0.00403538
0.00795821
0.0119782
0.0160824
0.0202573
0.0244888
0.028762
0.0330616
0.0373712
0.0416741
0.0459527
0.0501885
0.0543627
0.0584555
0.0624465
0.066315
0.0700395
0.0735984
0.0769696
0.0801308
0.0830596
0.0857339
0.0881318
0.0902317
0.0920127
0.0934546
0.0945381
0.0952453
0.0955595
0.0954655
0.0949499
0.0940011
0.0926093
0.0907673
0.0884695
0.0857129
0.0824967
0.0788225
0.0746939
0.0701138
0.0650873
0.0596636
0.0538868
0.047213
0.0391907
0.0126112
0.00456264
-0.00204633
-0.00768181
-0.0129107
-0.0177043
-0.0220287
-0.0258948
-0.0293152
-0.0323005
-0.0348623
-0.0370131
-0.0387657
-0.0401333
-0.0411295
-0.0417675
-0.0420608
-0.0420227
-0.0416661
-0.041004
-0.0400488
-0.0388126
-0.0373075
-0.035545
-0.0335364
-0.0312928
-0.028825
-0.0261437
-0.0232596
-0.0201831
-0.0169248
-0.0134953
-0.00990528
-0.00616578
-0.00228802
0.00171642
0.00583555
0.0100569
0.0143675
0.0187536
0.0232012
0.0276952
0.0322201
0.0367594
0.0412959
0.0458115
0.0502877
0.0547047
0.0590424
0.0632796
0.0673946
0.0713651
0.0751683
0.078781
0.0821797
0.0853406
0.0882401
0.0908546
0.093161
0.0951367
0.0967596
0.0980088
0.0988645
0.0993082
0.0993231
0.0988941
0.0980081
0.0966539
0.094823
0.0925087
0.0897073
0.0864171
0.0826393
0.0783775
0.0736342
0.0684148
0.0627708
0.0567484
0.0497784
0.0413891
0.00863012
0.00028455
-0.00656154
-0.0123912
-0.0177928
-0.0227365
-0.0271874
-0.0311571
-0.034659
-0.0377047
-0.0403066
-0.0424781
-0.0442333
-0.0455864
-0.046552
-0.0471445
-0.0473783
-0.0472678
-0.0468269
-0.0460693
-0.0450084
-0.0436571
-0.0420281
-0.0401335
-0.0379852
-0.0355948
-0.0329735
-0.0301324
-0.0270824
-0.0238341
-0.0203983
-0.0167858
-0.0130074
-0.00907413
-0.00499723
-0.000788327
0.00354058
0.00797702
0.012508
0.0171197
0.0217981
0.026528
0.0312936
0.0360784
0.0408649
0.0456347
0.0503685
0.0550464
0.0596474
0.0641498
0.068531
0.0727675
0.0768356
0.0807109
0.0843684
0.0877831
0.0909295
0.0937826
0.0963174
0.0985093
0.100335
0.10177
0.102795
0.103388
0.10353
0.103205
0.102398
0.101096
0.0992889
0.0969692
0.0941319
0.0907746
0.086898
0.0825053
0.0775989
0.0721841
0.066315
0.0600399
0.0527631
0.0439919
0.00415298
-0.00449687
-0.011585
-0.0176118
-0.0231875
-0.0282814
-0.0328576
-0.0369282
-0.0405076
-0.0436084
-0.0462439
-0.0484289
-0.0501783
-0.0515077
-0.0524327
-0.052969
-0.0531322
-0.0529377
-0.0524004
-0.051535
-0.0503559
-0.0488767
-0.0471109
-0.0450712
-0.0427703
-0.04022
-0.0374322
-0.0344182
-0.0311892
-0.0277561
-0.0241299
-0.0203214
-0.0163414
-0.0122012
-0.00791184
-0.00348504
0.00106727
0.00573262
0.010498
0.0153499
0.0202738
0.0252547
0.0302768
0.0353232
0.0403762
0.0454173
0.0504267
0.0553839
0.0602673
0.0650544
0.0697219
0.0742455
0.0785999
0.0827597
0.0866985
0.0903896
0.0938062
0.0969212
0.0997077
0.102139
0.10419
0.105835
0.107051
0.107814
0.108104
0.107902
0.107192
0.105958
0.104189
0.101876
0.0990136
0.0955972
0.0916273
0.0871067
0.0820376
0.0764252
0.0703261
0.0637907
0.0561959
0.0470267
-0.000844943
-0.00980712
-0.0171426
-0.0233698
-0.0291213
-0.0343656
-0.0390654
-0.0432338
-0.0468863
-0.0500363
-0.0526985
-0.0548885
-0.0566229
-0.0579183
-0.0587918
-0.0592602
-0.0593405
-0.0590491
-0.0584023
-0.0574158
-0.0561048
-0.054484
-0.0525675
-0.050369
-0.0479016
-0.0451777
-0.0422097
-0.0390092
-0.0355877
-0.0319564
-0.0281262
-0.0241083
-0.0199135
-0.0155528
-0.0110376
-0.00637935
-0.00158994
0.00331825
0.0083323
0.0134386
0.018623
0.0238703
0.0291644
0.0344887
0.0398251
0.0451549
0.0504579
0.0557132
0.0608984
0.0659906
0.0709653
0.0757974
0.0804606
0.0849278
0.0891715
0.0931632
0.0968744
0.100276
0.103339
0.106036
0.108337
0.110216
0.111646
0.112603
0.113063
0.113006
0.112412
0.111264
0.10955
0.107258
0.104381
0.100915
0.0968584
0.0922137
0.0869827
0.0811707
0.0748365
0.0680331
0.0601082
0.0505239
-0.00638988
-0.0156733
-0.0232622
-0.0296932
-0.0356224
-0.041017