/*--------------------------------*- C++ -*----------------------------------*\
  =========                 |
  \\      /  F ield         | OpenFOAM: The Open Source CFD Toolbox
   \\    /   O peration     | Website:  https://openfoam.org
    \\  /    A nd           | Version:  7
     \\/     M anipulation  |
\*---------------------------------------------------------------------------*/
FoamFile
{
    version     2.0;
    format      ascii;
    class       surfaceScalarField;
    location    "0.475";
    object      phi;
}
// * * * * * * * * * * * * * * * * * * * * * * * * * * * * * * * * * * * * * //

dimensions      [0 3 -1 0 0 0 0];

internalField   nonuniform List<scalar> 
12640
(
1.89261e-10
-1.91897e-10
5.55838e-10
-3.66578e-10
8.83298e-10
-3.27465e-10
1.04643e-09
-1.63141e-10
9.83106e-10
6.33254e-11
6.66217e-10
3.16887e-10
8.88891e-11
5.77326e-10
-7.43777e-10
8.32663e-10
-1.81958e-09
1.0758e-09
-3.12205e-09
1.30246e-09
-4.63218e-09
1.51013e-09
-6.32951e-09
1.69733e-09
-8.1928e-09
1.86329e-09
-1.02005e-08
2.0077e-09
-1.23311e-08
2.1306e-09
-1.45633e-08
2.23221e-09
-1.68763e-08
2.31296e-09
-1.92496e-08
2.37336e-09
-2.16637e-08
2.41404e-09
-2.40994e-08
2.43567e-09
-2.65383e-08
2.43898e-09
-2.89631e-08
2.42473e-09
-3.13568e-08
2.39371e-09
-3.37035e-08
2.34671e-09
-3.59881e-08
2.28456e-09
-3.81962e-08
2.20809e-09
-4.03143e-08
2.11811e-09
-4.23297e-08
2.01548e-09
-4.42308e-08
1.90103e-09
-4.60064e-08
1.7756e-09
-4.76464e-08
1.64005e-09
-4.91416e-08
1.49523e-09
-5.04836e-08
1.34199e-09
-5.16649e-08
1.18122e-09
-5.26786e-08
1.01379e-09
-5.35192e-08
8.40578e-10
-5.41817e-08
6.62495e-10
-5.46622e-08
4.80456e-10
-5.49576e-08
2.9539e-10
-5.50658e-08
1.08244e-10
-5.49858e-08
-8.00164e-11
-5.47174e-08
-2.6841e-10
-5.42614e-08
-4.55936e-10
-5.36199e-08
-6.41574e-10
-5.27956e-08
-8.24288e-10
-5.17926e-08
-1.00303e-09
-5.06158e-08
-1.17672e-09
-4.92715e-08
-1.3443e-09
-4.77669e-08
-1.50467e-09
-4.61101e-08
-1.65675e-09
-4.43107e-08
-1.79943e-09
-4.23791e-08
-1.93162e-09
-4.03268e-08
-2.05225e-09
-3.81666e-08
-2.16025e-09
-3.5912e-08
-2.25456e-09
-3.35779e-08
-2.33416e-09
-3.11798e-08
-2.39808e-09
-2.87345e-08
-2.44534e-09
-2.62594e-08
-2.47507e-09
-2.3773e-08
-2.48642e-09
-2.12944e-08
-2.47862e-09
-1.88434e-08
-2.45098e-09
-1.64405e-08
-2.4029e-09
-1.41066e-08
-2.33387e-09
-1.18631e-08
-2.24351e-09
-9.73152e-09
-2.13159e-09
-7.73348e-09
-1.99805e-09
-5.89046e-09
-1.84303e-09
-4.22355e-09
-1.66693e-09
-2.75301e-09
-1.47054e-09
-1.49789e-09
-1.25512e-09
-4.75222e-10
-1.02267e-09
3.01011e-10
-7.76231e-10
8.21597e-10
-5.20589e-10
1.08491e-09
-2.63325e-10
1.10167e-09
-1.67948e-11
9.0297e-10
1.9868e-10
5.54625e-10
3.48381e-10
1.83931e-10
3.70801e-10
1.84033e-10
3.6562e-10
-5.57518e-10
8.8666e-10
-8.87614e-10
1.21786e-09
-6.58666e-10
1.13611e-09
-8.13899e-11
5.03704e-10
6.95724e-10
-7.53203e-10
1.57379e-09
-2.6638e-09
2.48792e-09
-5.22703e-09
3.39589e-09
-8.42146e-09
4.27022e-09
-1.2212e-08
5.09304e-09
-1.65547e-08
5.85276e-09
-2.13994e-08
6.54203e-09
-2.66925e-08
7.15643e-09
-3.23783e-08
7.69352e-09
-3.84001e-08
8.15235e-09
-4.47009e-08
8.53302e-09
-5.12243e-08
8.83639e-09
-5.79149e-08
9.06392e-09
-6.47183e-08
9.21749e-09
-7.1582e-08
9.29933e-09
-7.84549e-08
9.3119e-09
-8.5288e-08
9.25787e-09
-9.20343e-08
9.14003e-09
-9.86489e-08
8.96132e-09
-1.05089e-07
8.72472e-09
-1.11314e-07
8.43331e-09
-1.17286e-07
8.0902e-09
-1.22969e-07
7.69854e-09
-1.2833e-07
7.26154e-09
-1.33337e-07
6.7824e-09
-1.37961e-07
6.26439e-09
-1.42177e-07
5.71077e-09
-1.4596e-07
5.12488e-09
-1.49288e-07
4.51005e-09
-1.52144e-07
3.86969e-09
-1.54511e-07
3.20722e-09
-1.56375e-07
2.52613e-09
-1.57724e-07
1.82997e-09
-1.58551e-07
1.12233e-09
-1.5885e-07
4.06873e-10
-1.58617e-07
-3.12681e-10
-1.57853e-07
-1.03254e-09
-1.5656e-07
-1.74886e-09
-1.54744e-07
-2.45772e-09
-1.52413e-07
-3.15514e-09
-1.49579e-07
-3.8371e-09
-1.46256e-07
-4.49953e-09
-1.42462e-07
-5.1383e-09
-1.38217e-07
-5.74929e-09
-1.33546e-07
-6.32834e-09
-1.28474e-07
-6.87132e-09
-1.23031e-07
-7.37409e-09
-1.17251e-07
-7.83259e-09
-1.11169e-07
-8.24278e-09
-1.04822e-07
-8.60076e-09
-9.82539e-08
-8.90272e-09
-9.1507e-08
-9.145e-09
-8.46282e-08
-9.3241e-09
-7.76666e-08
-9.43676e-09
-7.06731e-08
-9.47995e-09
-6.37008e-08
-9.45094e-09
-5.68044e-08
-9.34733e-09
-5.00402e-08
-9.1671e-09
-4.34654e-08
-8.90868e-09
-3.71379e-08
-8.57105e-09
-3.11157e-08
-8.15381e-09
-2.54565e-08
-7.6573e-09
-2.02167e-08
-7.08284e-09
-1.54507e-08
-6.4329e-09
-1.12097e-08
-5.71154e-09
-7.53995e-09
-4.92491e-09
-4.48053e-09
-4.08211e-09
-2.06036e-09
-3.1964e-09
-2.93675e-10
-2.28727e-09
8.26541e-10
-1.38352e-09
1.33796e-09
-5.28202e-10
1.32261e-09
2.13955e-10
9.24823e-10
7.45993e-10
3.70627e-10
9.24805e-10
5.54743e-10
3.30241e-10
-8.87764e-10
6.66484e-10
-1.22386e-09
6.13795e-10
-6.05977e-10
-8.89355e-11
6.21338e-10
-1.61263e-09
2.21941e-09
-4.05656e-09
4.01771e-09
-7.46516e-09
5.89651e-09
-1.18424e-08
7.77313e-09
-1.7163e-08
9.59076e-09
-2.33804e-08
1.13104e-08
-3.04333e-08
1.29057e-08
-3.82503e-08
1.4359e-08
-4.67527e-08
1.56588e-08
-5.58576e-08
1.67984e-08
-6.54795e-08
1.77743e-08
-7.55319e-08
1.85854e-08
-8.59283e-08
1.92328e-08
-9.65829e-08
1.97185e-08
-1.07412e-07
2.00461e-08
-1.18332e-07
2.02197e-08
-1.29264e-07
2.02443e-08
-1.40132e-07
2.01252e-08
-1.5086e-07
1.98681e-08
-1.61378e-07
1.94792e-08
-1.71618e-07
1.89647e-08
-1.81516e-07
1.83312e-08
-1.91011e-07
1.75854e-08
-2.00046e-07
1.67339e-08
-2.08568e-07
1.57837e-08
-2.16527e-07
1.47417e-08
-2.23878e-07
1.36151e-08
-2.30578e-07
1.24109e-08
-2.3659e-07
1.11364e-08
-2.41879e-07
9.79893e-09
-2.46415e-07
8.40588e-09
-2.50172e-07
6.96478e-09
-2.5313e-07
5.48326e-09
-2.55269e-07
3.96907e-09
-2.56576e-07
2.43009e-09
-2.57044e-07
8.74317e-10
-2.56666e-07
-6.90101e-10
-2.55444e-07
-2.25489e-09
-2.53381e-07
-3.81165e-09
-2.50487e-07
-5.35185e-09
-2.46775e-07
-6.86683e-09
-2.42265e-07
-8.34783e-09
-2.36978e-07
-9.786e-09
-2.30944e-07
-1.11724e-08
-2.24195e-07
-1.24982e-08
-2.16769e-07
-1.37543e-08
-2.08709e-07
-1.49317e-08
-2.00061e-07
-1.60217e-08
-1.90878e-07
-1.70155e-08
-1.81217e-07
-1.79044e-08
-1.71137e-07
-1.86801e-08
-1.60706e-07
-1.93345e-08
-1.49991e-07
-1.98598e-08
-1.39066e-07
-2.02487e-08
-1.28009e-07
-2.04942e-08
-1.16898e-07
-2.05903e-08
-1.05818e-07
-2.05311e-08
-9.48537e-08
-2.0312e-08
-8.40919e-08
-1.99289e-08
-7.36214e-08
-1.93791e-08
-6.35315e-08
-1.8661e-08
-5.39109e-08
-1.77744e-08
-4.48471e-08
-1.6721e-08
-3.64253e-08
-1.55047e-08
-2.87262e-08
-1.4132e-08
-2.18248e-08
-1.2613e-08
-1.5787e-08
-1.09627e-08
-1.06671e-08
-9.20205e-09
-6.50268e-09
-7.36081e-09
-3.30909e-09
-5.48088e-09
-1.07119e-09
-3.62141e-09
2.66961e-10
-1.86629e-09
8.15598e-10
-3.34607e-10
7.5473e-10
8.0685e-10
3.51043e-10
1.32835e-09
9.05804e-10
1.71869e-10
-1.05964e-09
1.04854e-10
-1.15685e-09
-5.87845e-10
8.67184e-11
-2.17025e-09
2.20374e-09
-4.81954e-09
4.8687e-09
-8.6421e-09
7.84027e-09
-1.36874e-08
1.09418e-08
-1.99602e-08
1.4046e-08
-2.74314e-08
1.70619e-08
-3.60456e-08
1.99247e-08
-4.57286e-08
2.25887e-08
-5.63921e-08
2.50225e-08
-6.79379e-08
2.72046e-08
-8.02611e-08
2.91216e-08
-9.32526e-08
3.07658e-08
-1.06801e-07
3.2134e-08
-1.20795e-07
3.32263e-08
-1.35122e-07
3.40454e-08
-1.49672e-07
3.45961e-08
-1.64337e-07
3.48848e-08
-1.79012e-07
3.49193e-08
-1.93594e-07
3.47081e-08
-2.07987e-07
3.42606e-08
-2.22095e-07
3.3587e-08
-2.35828e-07
3.26977e-08
-2.491e-07
3.16038e-08
-2.61831e-07
3.03164e-08
-2.73945e-07
2.88472e-08
-2.85369e-07
2.72078e-08
-2.96037e-07
2.54103e-08
-3.05889e-07
2.34667e-08
-3.14867e-07
2.13894e-08
-3.22922e-07
1.91909e-08
-3.30007e-07
1.68838e-08
-3.36082e-07
1.44809e-08
-3.41112e-07
1.19953e-08
-3.45069e-07
9.44016e-09
-3.47929e-07
6.82892e-09
-3.49674e-07
4.17521e-09
-3.50293e-07
1.49289e-09
-3.49779e-07
-1.20398e-09
-3.48133e-07
-3.90108e-09
-3.4536e-07
-6.58389e-09
-3.41475e-07
-9.23769e-09
-3.36494e-07
-1.18476e-08
-3.30443e-07
-1.43984e-08
-3.23354e-07
-1.68751e-08
-3.15264e-07
-1.92622e-08
-3.06218e-07
-2.15444e-08
-2.96266e-07
-2.37064e-08
-2.85465e-07
-2.57328e-08
-2.73878e-07
-2.76085e-08
-2.61575e-07
-2.93186e-08
-2.48631e-07
-3.08484e-08
-2.35127e-07
-3.21838e-08
-2.21151e-07
-3.3311e-08
-2.06794e-07
-3.4217e-08
-1.92153e-07
-3.48894e-08
-1.7733e-07
-3.53169e-08
-1.62432e-07
-3.5489e-08
-1.47566e-07
-3.53967e-08
-1.32846e-07
-3.50322e-08
-1.18385e-07
-3.43896e-08
-1.043e-07
-3.34645e-08
-9.07054e-08
-3.22554e-08
-7.77171e-08
-3.07628e-08
-6.54473e-08
-2.89909e-08
-5.40045e-08
-2.69475e-08
-4.3491e-08
-2.46455e-08
-3.40004e-08
-2.21037e-08
-2.56142e-08
-1.93489e-08
-1.83982e-08
-1.64181e-08
-1.23968e-08
-1.33622e-08
-7.62733e-09
-1.02504e-08
-4.07151e-09
-7.17728e-09
-1.66609e-09
-4.27172e-09
-2.91236e-10
-1.7094e-09
2.42233e-10
2.73445e-10
2.07943e-10
1.3626e-09
1.11373e-09
-4.73906e-11
-1.01225e-09
-6.54292e-10
-5.49956e-10
-2.15856e-09
1.59098e-09
-4.80067e-09
4.84585e-09
-8.74482e-09
8.81284e-09
-1.40904e-08
1.31858e-08
-2.08823e-08
1.77337e-08
-2.91209e-08
2.22846e-08
-3.87705e-08
2.67115e-08
-4.97674e-08
3.09215e-08
-6.20257e-08
3.48471e-08
-7.54432e-08
3.844e-08
-8.99055e-08
4.16669e-08
-1.0529e-07
4.45056e-08
-1.21466e-07
4.69428e-08
-1.38304e-07
4.89716e-08
-1.55668e-07
5.05906e-08
-1.73426e-07
5.18026e-08
-1.91443e-07
5.26134e-08
-2.0959e-07
5.30318e-08
-2.27739e-07
5.30682e-08
-2.45766e-07
5.2735e-08
-2.63551e-07
5.20458e-08
-2.80979e-07
5.10152e-08
-2.9794e-07
4.96588e-08
-3.14329e-07
4.79929e-08
-3.30047e-07
4.60341e-08
-3.45e-07
4.37998e-08
-3.59099e-07
4.13077e-08
-3.72265e-07
3.85757e-08
-3.8442e-07
3.56223e-08
-3.95497e-07
3.24661e-08
-4.05432e-07
2.91259e-08
-4.1417e-07
2.56212e-08
-4.2166e-07
2.19712e-08
-4.2786e-07
1.81959e-08
-4.32736e-07
1.43154e-08
-4.36257e-07
1.03501e-08
-4.38402e-07
6.3207e-09
-4.39158e-07
2.24832e-09
-4.38516e-07
-1.84563e-09
-4.36478e-07
-5.93942e-09
-4.33051e-07
-1.0011e-08
-4.2825e-07
-1.4038e-08
-4.221e-07
-1.79978e-08
-4.14631e-07
-2.18676e-08
-4.05882e-07
-2.56244e-08
-3.95899e-07
-2.9245e-08
-3.84737e-07
-3.27062e-08
-3.72459e-07
-3.59848e-08
-3.59134e-07
-3.90579e-08
-3.4484e-07
-4.19026e-08
-3.29662e-07
-4.44966e-08
-3.13692e-07
-4.6818e-08
-2.97031e-07
-4.88454e-08
-2.79783e-07
-5.05586e-08
-2.62062e-07
-5.19381e-08
-2.43986e-07
-5.29656e-08
-2.25678e-07
-5.36246e-08
-2.07267e-07
-5.38997e-08
-1.88886e-07
-5.3778e-08
-1.7067e-07
-5.32485e-08
-1.52757e-07
-5.23029e-08
-1.35285e-07
-5.0936e-08
-1.18394e-07
-4.9146e-08
-1.02222e-07
-4.69356e-08
-8.69004e-08
-4.43121e-08
-7.2559e-08
-4.12889e-08
-5.93176e-08
-3.78869e-08
-4.72855e-08
-3.41358e-08
-3.65574e-08
-3.0077e-08
-2.72091e-08
-2.57663e-08
-1.92927e-08
-2.12786e-08
-1.28299e-08
-1.67131e-08
-7.80551e-09
-1.22017e-08
-4.15861e-09
-7.91866e-09
-1.7739e-09
-4.09413e-09
-4.71851e-10
-1.02856e-09
2.19671e-12
8.88559e-10
1.11592e-09
-2.94277e-10
-7.17969e-10
-1.51848e-09
6.74239e-10
-3.94132e-09
4.01382e-09
-7.76197e-09
8.66649e-09
-1.31177e-08
1.41686e-08
-2.00899e-08
2.0158e-08
-2.87107e-08
2.63545e-08
-3.89703e-08
3.25441e-08
-5.08234e-08
3.85646e-08
-6.41961e-08
4.42942e-08
-7.89914e-08
4.96423e-08
-9.50942e-08
5.45428e-08
-1.12376e-07
5.89484e-08
-1.30697e-07
6.2827e-08
-1.49913e-07
6.61582e-08
-1.69872e-07
6.89307e-08
-1.90422e-07
7.11409e-08
-2.1141e-07
7.27907e-08
-2.32684e-07
7.3887e-08
-2.54092e-07
7.44405e-08
-2.75489e-07
7.44647e-08
-2.9673e-07
7.3976e-08
-3.17677e-07
7.29923e-08
-3.38195e-07
7.15336e-08
-3.58157e-07
6.96209e-08
-3.77441e-07
6.72765e-08
-3.9593e-07
6.45234e-08
-4.13516e-07
6.13855e-08
-4.30095e-07
5.78873e-08
-4.45574e-07
5.40539e-08
-4.59862e-07
4.99109e-08
-4.72881e-07
4.54843e-08
-4.84555e-07
4.08006e-08
-4.94821e-07
3.58866e-08
-5.03619e-07
3.07698e-08
-5.10901e-07
2.54778e-08
-5.16625e-07
2.00389e-08
-5.20756e-07
1.44818e-08
-5.23271e-07
8.83549e-09
-5.24152e-07
3.12956e-09
-5.23392e-07
-2.60598e-09
-5.20991e-07
-8.34069e-09
-5.16958e-07
-1.40437e-08
-5.11312e-07
-1.96837e-08
-5.04081e-07
-2.52292e-08
-4.953e-07
-3.06481e-08
-4.85016e-07
-3.59085e-08
-4.73283e-07
-4.09779e-08
-4.60165e-07
-4.58242e-08
-4.45735e-07
-5.04151e-08
-4.30074e-07
-5.47186e-08
-4.13274e-07
-5.87031e-08
-3.95433e-07
-6.23376e-08
-3.76659e-07
-6.55919e-08
-3.57068e-07
-6.84366e-08
-3.36783e-07
-7.08436e-08
-3.15935e-07
-7.27863e-08
-2.9466e-07
-7.424e-08
-2.73103e-07
-7.51817e-08
-2.51412e-07
-7.55912e-08
-2.29739e-07
-7.54509e-08
-2.08241e-07
-7.47465e-08
-1.87076e-07
-7.34676e-08
-1.66404e-07
-7.1608e-08
-1.46383e-07
-6.91666e-08
-1.27171e-07
-6.61482e-08
-1.08918e-07
-6.25646e-08
-9.17712e-08
-5.84361e-08
-7.58652e-08
-5.37928e-08
-6.13238e-08
-4.86773e-08
-4.82538e-08
-4.3147e-08
-3.67418e-08
-3.72784e-08
-2.68487e-08
-3.11717e-08
-1.86046e-08
-2.49572e-08
-1.20029e-08
-1.88034e-08
-6.99349e-09
-1.29281e-08
-3.47636e-09
-7.61129e-09
-1.29549e-09
-3.20943e-09
-2.32848e-10
-1.74072e-10
8.83063e-10
-5.5064e-10
-1.67331e-10
-2.43007e-09
2.55366e-09
-5.83145e-09
7.41519e-09
-1.09027e-08
1.37378e-08
-1.77449e-08
2.10107e-08
-2.6413e-08
2.88262e-08
-3.69199e-08
3.68614e-08
-4.92403e-08
4.48644e-08
-6.33157e-08
5.26401e-08
-7.906e-08
6.00386e-08
-9.6364e-08
6.69463e-08
-1.151e-07
7.32786e-08
-1.35125e-07
7.89738e-08
-1.56287e-07
8.39888e-08
-1.78424e-07
8.82952e-08
-2.0137e-07
9.18768e-08
-2.24956e-07
9.47267e-08
-2.49011e-07
9.68461e-08
-2.73366e-07
9.82423e-08
-2.97854e-07
9.89278e-08
-3.22309e-07
9.89195e-08
-3.4657e-07
9.82375e-08
-3.70483e-07
9.69048e-08
-3.93896e-07
9.49467e-08
-4.16665e-07
9.23905e-08
-4.38654e-07
8.92649e-08
-4.5973e-07
8.56001e-08
-4.79772e-07
8.14271e-08
-4.98663e-07
7.67782e-08
-5.16295e-07
7.16864e-08
-5.3257e-07
6.61852e-08
-5.47394e-07
6.03092e-08
-5.60687e-07
5.40932e-08
-5.72373e-07
4.75729e-08
-5.82388e-07
4.07844e-08
-5.90675e-07
3.37647e-08
-5.97187e-07
2.65509e-08
-6.01886e-07
1.91812e-08
-6.04745e-07
1.1694e-08
-6.05744e-07
4.12847e-09
-6.04874e-07
-3.47557e-09
-6.02137e-07
-1.10778e-08
-5.97543e-07
-1.86375e-08
-5.91114e-07
-2.61132e-08
-5.8288e-07
-3.34632e-08
-5.72882e-07
-4.06453e-08
-5.61174e-07
-4.76171e-08
-5.47816e-07
-5.43361e-08
-5.3288e-07
-6.07597e-08
-5.1645e-07
-6.68456e-08
-4.98616e-07
-7.25518e-08
-4.79483e-07
-7.78366e-08
-4.59161e-07
-8.26596e-08
-4.37772e-07
-8.6981e-08
-4.15446e-07
-9.07626e-08
-3.92322e-07
-9.39677e-08
-3.68546e-07
-9.65619e-08
-3.44273e-07
-9.85129e-08
-3.19663e-07
-9.97915e-08
-2.94883e-07
-1.00371e-07
-2.70103e-07
-1.00231e-07
-2.45499e-07
-9.93513e-08
-2.21246e-07
-9.77206e-08
-1.97522e-07
-9.53318e-08
-1.74504e-07
-9.21846e-08
-1.52365e-07
-8.8287e-08
-1.31274e-07
-8.36557e-08
-1.11391e-07
-7.83188e-08
-9.28676e-08
-7.23166e-08
-7.58393e-08
-6.57056e-08
-6.04259e-08
-5.85604e-08
-4.67254e-08
-5.09789e-08
-3.48103e-08
-4.30868e-08
-2.47227e-08
-3.50447e-08
-1.64698e-08
-2.70564e-08
-1.00189e-08
-1.93791e-08
-5.29353e-09
-1.23366e-08
-2.17058e-09
-6.33239e-09
-4.7877e-10
-1.86589e-09
4.04289e-10
-8.06605e-10
6.3927e-10
-3.35428e-09
5.10133e-09
-7.76169e-09
1.18226e-08
-1.41215e-08
2.00975e-08
-2.24927e-08
2.93819e-08
-3.28986e-08
3.92321e-08
-4.53272e-08
4.929e-08
-5.97335e-08
5.92707e-08
-7.60425e-08
6.89491e-08
-9.41534e-08
7.81495e-08
-1.13943e-07
8.67362e-08
-1.35271e-07
9.46063e-08
-1.57981e-07
1.01684e-07
-1.81906e-07
1.07914e-07
-2.06871e-07
1.1326e-07
-2.32696e-07
1.17701e-07
-2.59195e-07
1.21226e-07
-2.86184e-07
1.23835e-07
-3.13477e-07
1.25535e-07
-3.40891e-07
1.26342e-07
-3.68246e-07
1.26275e-07
-3.95366e-07
1.25357e-07
-4.2208e-07
1.23619e-07
-4.48223e-07
1.21089e-07
-4.73636e-07
1.17804e-07
-4.98168e-07
1.13797e-07
-5.21675e-07
1.09107e-07
-5.44021e-07
1.03773e-07
-5.65079e-07
9.78362e-08
-5.8473e-07
9.13372e-08
-6.02864e-07
8.43189e-08
-6.1938e-07
7.6825e-08
-6.34186e-07
6.88997e-08
-6.47201e-07
6.05883e-08
-6.58354e-07
5.19367e-08
-6.67581e-07
4.29918e-08
-6.74831e-07
3.3801e-08
-6.80062e-07
2.44125e-08
-6.83244e-07
1.48755e-08
-6.84355e-07
5.23969e-09
-6.83386e-07
-4.44445e-09
-6.80338e-07
-1.41257e-08
-6.75224e-07
-2.37521e-08
-6.68066e-07
-3.32713e-08
-6.58898e-07
-4.26303e-08
-6.47768e-07
-5.17756e-08
-6.34732e-07
-6.06536e-08
-6.19857e-07
-6.92103e-08
-6.03225e-07
-7.7392e-08
-5.84926e-07
-8.51452e-08
-5.65061e-07
-9.24167e-08
-5.43743e-07
-9.91542e-08
-5.21096e-07
-1.05307e-07
-4.97253e-07
-1.10824e-07
-4.72357e-07
-1.15658e-07
-4.46561e-07
-1.19764e-07
-4.20026e-07
-1.23097e-07
-3.92921e-07
-1.25618e-07
-3.65422e-07
-1.27291e-07
-3.37711e-07
-1.28082e-07
-3.09976e-07
-1.27966e-07
-2.82407e-07
-1.2692e-07
-2.55197e-07
-1.2493e-07
-2.2854e-07
-1.21988e-07
-2.02629e-07
-1.18096e-07
-1.77653e-07
-1.13263e-07
-1.53795e-07
-1.07514e-07
-1.3123e-07
-1.00883e-07
-1.10124e-07
-9.34233e-08
-9.06252e-08
-8.52042e-08
-7.28672e-08
-7.63184e-08
-5.69612e-08
-6.68849e-08
-4.29935e-08
-5.70545e-08
-3.10218e-08
-4.70165e-08
-2.10713e-08
-3.70068e-08
-1.31322e-08
-2.73182e-08
-7.15726e-09
-1.83116e-08
-3.06165e-09
-1.0428e-08
-7.25321e-10
-4.20221e-09
-3.21036e-10
-1.05708e-09
1.69634e-09
-4.27083e-09
8.31507e-09
-9.6902e-09
1.7242e-08
-1.73521e-08
2.77594e-08
-2.72711e-08
3.93009e-08
-3.94351e-08
5.1396e-08
-5.38035e-08
6.36584e-08
-7.0308e-08
7.57752e-08
-8.88543e-08
8.74954e-08
-1.09325e-07
9.86197e-08
-1.31581e-07
1.08992e-07
-1.55467e-07
1.18493e-07
-1.80814e-07
1.27031e-07
-2.07441e-07
1.34541e-07
-2.35159e-07
1.40979e-07
-2.63774e-07
1.46316e-07
-2.93088e-07
1.5054e-07
-3.22901e-07
1.53648e-07
-3.53015e-07
1.55649e-07
-3.8323e-07
1.56558e-07
-4.13355e-07
1.56399e-07
-4.43198e-07
1.55201e-07
-4.72576e-07
1.52996e-07
-5.01309e-07
1.49823e-07
-5.29228e-07
1.45722e-07
-5.56167e-07
1.40736e-07
-5.81972e-07
1.34912e-07
-6.06494e-07
1.28296e-07
-6.29597e-07
1.20939e-07
-6.5115e-07
1.12891e-07
-6.71036e-07
1.04205e-07
-6.89145e-07
9.49333e-08
-7.05376e-07
8.51316e-08
-7.19643e-07
7.4855e-08
-7.31867e-07
6.41602e-08
-7.4198e-07
5.31048e-08
-7.49926e-07
4.17471e-08
-7.5566e-07
3.01468e-08
-7.59149e-07
1.83641e-08
-7.60369e-07
6.46035e-09
-7.59312e-07
-5.50221e-09
-7.55977e-07
-1.74606e-08
-7.50378e-07
-2.93509e-08
-7.4254e-07
-4.11087e-08
-7.32502e-07
-5.26688e-08
-7.20312e-07
-6.39656e-08
-7.06032e-07
-7.49332e-08
-6.89737e-07
-8.55054e-08
-6.71513e-07
-9.56163e-08
-6.51458e-07
-1.052e-07
-6.29682e-07
-1.14192e-07
-6.06308e-07
-1.22528e-07
-5.81469e-07
-1.30146e-07
-5.55309e-07
-1.36984e-07
-5.27983e-07
-1.42985e-07
-4.99655e-07
-1.48091e-07
-4.70501e-07
-1.52252e-07
-4.40702e-07
-1.55417e-07
-4.10448e-07
-1.57544e-07
-3.79936e-07
-1.58594e-07
-3.49368e-07
-1.58534e-07
-3.18949e-07
-1.57339e-07
-2.88888e-07
-1.54992e-07
-2.59393e-07
-1.51484e-07
-2.3067e-07
-1.46818e-07
-2.02925e-07
-1.41008e-07
-1.76355e-07
-1.34084e-07
-1.51149e-07
-1.26089e-07
-1.27487e-07
-1.17086e-07
-1.05531e-07
-1.0716e-07
-8.54291e-08
-9.64203e-08
-6.73075e-08
-8.50064e-08
-5.12691e-08
-7.30929e-08
-3.73898e-08
-6.08957e-08
-2.57169e-08
-4.86798e-08
-1.62667e-08
-3.67683e-08
-9.02491e-09
-2.55534e-08
-3.94782e-09
-1.55051e-08
-9.67142e-10
-7.18289e-09
-1.28818e-09
-1.29965e-09
2.99599e-09
-5.16854e-09
1.21839e-08
-1.1592e-08
2.36655e-08
-2.05532e-08
3.67206e-08
-3.20217e-08
5.07693e-08
-4.59479e-08
6.53223e-08
-6.22605e-08
7.9971e-08
-8.08652e-08
9.438e-08
-1.01646e-07
1.08276e-07
-1.24465e-07
1.21439e-07
-1.49169e-07
1.33695e-07
-1.75585e-07
1.44909e-07
-2.0353e-07
1.54976e-07
-2.32809e-07
1.6382e-07
-2.6322e-07
1.7139e-07
-2.94555e-07
1.77652e-07
-3.26604e-07
1.82588e-07
-3.59152e-07
1.86197e-07
-3.91989e-07
1.88485e-07
-4.24904e-07
1.89473e-07
-4.5769e-07
1.89185e-07
-4.90145e-07
1.87655e-07
-5.22071e-07
1.84923e-07
-5.5328e-07
1.81032e-07
-5.83588e-07
1.7603e-07
-6.1282e-07
1.69968e-07
-6.4081e-07
1.62902e-07
-6.67401e-07
1.54887e-07
-6.92445e-07
1.45983e-07
-7.15804e-07
1.3625e-07
-7.37351e-07
1.25752e-07
-7.56969e-07
1.14551e-07
-7.74551e-07
1.02714e-07
-7.90004e-07
9.03078e-08
-8.03243e-07
7.73995e-08
-8.14197e-07
6.40584e-08
-8.22805e-07
5.0355e-08
-8.29019e-07
3.63605e-08
-8.32802e-07
2.21477e-08
-8.34132e-07
7.78996e-09
-8.32996e-07
-6.63787e-09
-8.29397e-07
-2.10602e-08
-8.23347e-07
-3.54003e-08
-8.14875e-07
-4.95809e-08
-8.0402e-07
-6.35239e-08
-7.90835e-07
-7.71504e-08
-7.75387e-07
-9.03816e-08
-7.57754e-07
-1.03138e-07
-7.38028e-07
-1.15342e-07
-7.16316e-07
-1.26913e-07
-6.92734e-07
-1.37774e-07
-6.67412e-07
-1.4785e-07
-6.40493e-07
-1.57065e-07
-6.12132e-07
-1.65346e-07
-5.82492e-07
-1.72624e-07
-5.51751e-07
-1.78833e-07
-5.20093e-07
-1.83909e-07
-4.87714e-07
-1.87797e-07
-4.54816e-07
-1.90443e-07
-4.21608e-07
-1.91802e-07
-3.88306e-07
-1.91836e-07
-3.55129e-07
-1.90516e-07
-3.223e-07
-1.87821e-07
-2.90039e-07
-1.83744e-07
-2.5857e-07
-1.78288e-07
-2.28108e-07
-1.7147e-07
-1.98868e-07
-1.63324e-07
-1.71052e-07
-1.53905e-07
-1.44854e-07
-1.43285e-07
-1.20451e-07
-1.31562e-07
-9.80083e-08
-1.18863e-07
-7.76673e-08
-1.05347e-07
-5.95497e-08
-9.12105e-08
-4.37527e-08
-7.66927e-08
-3.03478e-08
-6.20846e-08
-1.93805e-08
-4.77356e-08
-1.08711e-08
-3.40629e-08
-4.81753e-09
-2.15586e-08
-1.20167e-09
-1.07987e-08
-2.48984e-09
-1.53345e-09
4.52944e-09
-6.04192e-09
1.66924e-08
-1.34536e-08
3.10771e-08
-2.37006e-08
4.69676e-08
-3.67085e-08
6.37772e-08
-5.23899e-08
8.10036e-08
-7.06408e-08
9.8222e-08
-9.13395e-08
1.15079e-07
-1.14346e-07
1.31282e-07
-1.39502e-07
1.46595e-07
-1.66634e-07
1.60828e-07
-1.95555e-07
1.7383e-07
-2.26065e-07
1.85486e-07
-2.57956e-07
1.95711e-07
-2.91011e-07
2.04445e-07
-3.2501e-07
2.1165e-07
-3.59727e-07
2.17306e-07
-3.9494e-07
2.21409e-07
-4.30421e-07
2.23967e-07
-4.65951e-07
2.25002e-07
-5.01309e-07
2.24543e-07
-5.36283e-07
2.22629e-07
-5.70664e-07
2.19304e-07
-6.04252e-07
2.1462e-07
-6.36853e-07
2.08631e-07
-6.68283e-07
2.01398e-07
-6.98364e-07
1.92984e-07
-7.26933e-07
1.83455e-07
-7.53831e-07
1.72881e-07
-7.78913e-07
1.61333e-07
-8.02045e-07
1.48884e-07
-8.23103e-07
1.35609e-07
-8.41974e-07
1.21586e-07
-8.58559e-07
1.06892e-07
-8.72768e-07
9.16085e-08
-8.84525e-07
7.58158e-08
-8.93767e-07
5.95969e-08
-9.00443e-07
4.30359e-08
-9.04513e-07
2.62181e-08
-9.05953e-07
9.23022e-09
-9.04751e-07
-7.83985e-09
-9.00908e-07
-2.49031e-08
-8.94439e-07
-4.18694e-08
-8.85373e-07
-5.86477e-08
-8.7375e-07
-7.51462e-08
-8.59628e-07
-9.12725e-08
-8.43076e-07
-1.06934e-07
-8.24178e-07
-1.22037e-07
-8.0303e-07
-1.36489e-07
-7.79745e-07
-1.50199e-07
-7.54445e-07
-1.63074e-07
-7.27269e-07
-1.75026e-07
-6.98367e-07
-1.85967e-07
-6.67901e-07
-1.95812e-07
-6.36046e-07
-2.04479e-07
-6.02988e-07
-2.1189e-07
-5.68924e-07
-2.17974e-07
-5.34057e-07
-2.22663e-07
-4.98604e-07
-2.25896e-07
-4.62786e-07
-2.2762e-07
-4.26829e-07
-2.27792e-07
-3.90967e-07
-2.26378e-07
-3.55433e-07
-2.23355e-07
-3.20465e-07
-2.18713e-07
-2.86296e-07
-2.12456e-07
-2.53159e-07
-2.04607e-07
-2.21279e-07
-1.95204e-07
-1.90876e-07
-1.84308e-07
-1.62158e-07
-1.72003e-07
-1.35318e-07
-1.58401e-07
-1.10538e-07
-1.43644e-07
-8.79779e-08
-1.27907e-07
-6.778e-08
-1.11408e-07
-5.00644e-08
-9.44083e-08
-3.4929e-08
-7.722e-08
-2.24496e-08
-6.0215e-08
-1.2682e-08
-4.38305e-08
-5.66513e-09
-2.85755e-08
-1.42794e-09
-1.50359e-08
-3.91778e-09
-1.75847e-09
6.28791e-09
-6.88897e-09
2.18229e-08
-1.52685e-08
3.94566e-08
-2.67818e-08
5.84809e-08
-4.13118e-08
7.83072e-08
-5.87335e-08
9.84253e-08
-7.891e-08
1.18398e-07
-1.01691e-07
1.37859e-07
-1.2691e-07
1.56501e-07
-1.54388e-07
1.74073e-07
-1.83931e-07
1.90371e-07
-2.15335e-07
2.05233e-07
-2.48382e-07
2.18534e-07
-2.82851e-07
2.30179e-07
-3.1851e-07
2.40104e-07
-3.55125e-07
2.48265e-07
-3.9246e-07
2.54641e-07
-4.30277e-07
2.59226e-07
-4.6834e-07
2.6203e-07
-5.06415e-07
2.63078e-07
-5.44274e-07
2.62402e-07
-5.81691e-07
2.60046e-07
-6.18448e-07
2.56062e-07
-6.54336e-07
2.50507e-07
-6.8915e-07
2.43445e-07
-7.22697e-07
2.34945e-07
-7.54793e-07
2.25079e-07
-7.85263e-07
2.13925e-07
-8.13943e-07
2.01561e-07
-8.40681e-07
1.8807e-07
-8.65334e-07
1.73537e-07
-8.87774e-07
1.58049e-07
-9.07883e-07
1.41694e-07
-9.25554e-07
1.24564e-07
-9.40695e-07
1.0675e-07
-9.53227e-07
8.83472e-08
-9.63081e-07
6.94513e-08
-9.70205e-07
5.01595e-08
-9.74557e-07
3.05706e-08
-9.76112e-07
1.07849e-08
-9.74856e-07
-9.09588e-09
-9.7079e-07
-2.89687e-08
-9.6393e-07
-4.87293e-08
-9.54306e-07
-6.82724e-08
-9.4196e-07
-8.74917e-08
-9.26952e-07
-1.06281e-07
-9.09354e-07
-1.24531e-07
-8.89254e-07
-1.42137e-07
-8.66753e-07
-1.5899e-07
-8.41968e-07
-1.74984e-07
-8.15027e-07
-1.90014e-07
-7.86076e-07
-2.03977e-07
-7.55271e-07
-2.16772e-07
-7.22784e-07
-2.28299e-07
-6.88796e-07
-2.38467e-07
-6.53502e-07
-2.47184e-07
-6.17109e-07
-2.54367e-07
-5.79832e-07
-2.5994e-07
-5.41896e-07
-2.63832e-07
-5.03534e-07
-2.65982e-07
-4.64985e-07
-2.66342e-07
-4.26493e-07
-2.6487e-07
-3.88306e-07
-2.61542e-07
-3.50672e-07
-2.56346e-07
-3.13841e-07
-2.49288e-07
-2.78057e-07
-2.40391e-07
-2.43562e-07
-2.29699e-07
-2.10588e-07
-2.17281e-07
-1.79361e-07
-2.0323e-07
-1.50092e-07
-1.8767e-07
-1.22979e-07
-1.70757e-07
-9.82035e-08
-1.52683e-07
-7.59288e-08
-1.33683e-07
-5.62998e-08
-1.14037e-07
-3.94419e-08
-9.40779e-08
-2.54623e-08
-7.41946e-08
-1.44517e-08
-5.48411e-08
-6.48875e-09
-3.65385e-08
-1.64596e-09
-1.98787e-08
-5.56374e-09
-1.97517e-09
8.26308e-09
-7.70993e-09
2.75576e-08
-1.70353e-08
4.87819e-08
-2.97922e-08
7.12379e-08
-4.5823e-08
9.4338e-08
-6.49658e-08
1.17568e-07
-8.70505e-08
1.40483e-07
-1.11897e-07
1.62706e-07
-1.39314e-07
1.83918e-07
-1.69098e-07
2.03857e-07
-2.01034e-07
2.22308e-07
-2.349e-07
2.39098e-07
-2.70461e-07
2.54095e-07
-3.07479e-07
2.67197e-07
-3.45709e-07
2.78334e-07
-3.84903e-07
2.8746e-07
-4.24812e-07
2.9455e-07
-4.65187e-07
2.996e-07
-5.05779e-07
3.02623e-07
-5.46345e-07
3.03644e-07
-5.86644e-07
3.02701e-07
-6.26442e-07
2.99845e-07
-6.65512e-07
2.95132e-07
-7.03633e-07
2.88628e-07
-7.40595e-07
2.80406e-07
-7.76194e-07
2.70544e-07
-8.10239e-07
2.59124e-07
-8.42548e-07
2.46234e-07
-8.7295e-07
2.31963e-07
-9.01287e-07
2.16407e-07
-9.2741e-07
1.9966e-07
-9.51184e-07
1.81823e-07
-9.72487e-07
1.62997e-07
-9.91209e-07
1.43285e-07
-1.00725e-06
1.22794e-07
-1.02053e-06
1.01629e-07
-1.03099e-06
7.99019e-08
-1.03855e-06
5.77223e-08
-1.04318e-06
3.52034e-08
-1.04486e-06
1.24596e-08
-1.04356e-06
-1.0393e-08
-1.03929e-06
-3.32367e-08
-1.03207e-06
-5.59528e-08
-1.02192e-06
-7.8421e-08
-1.00889e-06
-1.0052e-07
-9.93042e-07
-1.22128e-07
-9.7445e-07
-1.43123e-07
-9.53204e-07
-1.63383e-07
-9.2941e-07
-1.82784e-07
-9.03188e-07
-2.01206e-07
-8.74673e-07
-2.18529e-07
-8.44015e-07
-2.34636e-07
-8.11376e-07
-2.4941e-07
-7.76936e-07
-2.6274e-07
-7.40883e-07
-2.74519e-07
-7.03421e-07
-2.84646e-07
-6.64764e-07
-2.93024e-07
-6.25138e-07
-2.99566e-07
-5.84777e-07
-3.04193e-07
-5.43925e-07
-3.06835e-07
-5.02831e-07
-3.07435e-07
-4.61753e-07
-3.05948e-07
-4.2095e-07
-3.02346e-07
-3.80683e-07
-2.96613e-07
-3.41214e-07
-2.88756e-07
-3.02805e-07
-2.788e-07
-2.65709e-07
-2.66795e-07
-2.30177e-07
-2.52813e-07
-1.9645e-07
-2.36958e-07
-1.64757e-07
-2.19363e-07
-1.35315e-07
-2.00198e-07
-1.08328e-07
-1.7967e-07
-8.39828e-08
-1.58029e-07
-6.24488e-08
-1.35571e-07
-4.38802e-08
-1.12646e-07
-2.84153e-08
-8.96595e-08
-1.61795e-08
-6.7077e-08
-7.28888e-09
-4.54291e-08
-1.85625e-09
-2.53114e-08
-7.41999e-09
-2.18431e-09
1.04474e-08
-8.50634e-09
3.38796e-08
-1.87557e-08
5.90312e-08
-3.27327e-08
8.52149e-08
-5.02413e-08
1.11847e-07
-7.10836e-08
1.3841e-07
-9.5057e-08
1.64457e-07
-1.21952e-07
1.89601e-07
-1.51549e-07
2.13516e-07
-1.83622e-07
2.3593e-07
-2.17935e-07
2.5662e-07
-2.54244e-07
2.75407e-07
-2.92298e-07
2.92149e-07
-3.31841e-07
3.06741e-07
-3.72615e-07
3.19108e-07
-4.14358e-07
3.29202e-07
-4.56806e-07
3.36998e-07
-4.997e-07
3.42494e-07
-5.4278e-07
3.45702e-07
-5.8579e-07
3.46654e-07
-6.28482e-07
3.45393e-07
-6.70611e-07
3.41973e-07
-7.1194e-07
3.36461e-07
-7.52241e-07
3.28929e-07
-7.91295e-07
3.1946e-07
-8.28892e-07
3.08141e-07
-8.64833e-07
2.95065e-07
-8.9893e-07
2.8033e-07
-9.31004e-07
2.64038e-07
-9.60893e-07
2.46295e-07
-9.88442e-07
2.27209e-07
-1.01351e-06
2.06893e-07
-1.03597e-06
1.8546e-07
-1.05572e-06
1.63028e-07
-1.07264e-06
1.39716e-07
-1.08666e-06
1.15644e-07
-1.09769e-06
9.0937e-08
-1.10569e-06
6.57189e-08
-1.1106e-06
4.01175e-08
-1.1124e-06
1.42618e-08
-1.11108e-06
-1.17173e-08
-1.10663e-06
-3.76872e-08
-1.09907e-06
-6.35138e-08
-1.08843e-06
-8.90618e-08
-1.07475e-06
-1.14194e-07
-1.05811e-06
-1.38774e-07
-1.03857e-06
-1.62664e-07
-1.01623e-06
-1.85724e-07
-9.91191e-07
-2.07818e-07
-9.63588e-07
-2.28809e-07
-9.33556e-07
-2.48562e-07
-9.01249e-07
-2.66943e-07
-8.66837e-07
-2.83822e-07
-8.30501e-07
-2.99075e-07
-7.92441e-07
-3.1258e-07
-7.52866e-07
-3.24221e-07
-7.11998e-07
-3.33892e-07
-6.70072e-07
-3.41492e-07
-6.27332e-07
-3.46933e-07
-5.84031e-07
-3.50135e-07
-5.40431e-07
-3.51035e-07
-4.96799e-07
-3.49581e-07
-4.53406e-07
-3.45738e-07
-4.10529e-07
-3.39491e-07
-3.68441e-07
-3.30844e-07
-3.27419e-07
-3.19823e-07
-2.87733e-07
-3.06481e-07
-2.49649e-07
-2.90897e-07
-2.13425e-07
-2.73181e-07
-1.79312e-07
-2.53477e-07
-1.47546e-07
-2.31964e-07
-1.18352e-07
-2.08864e-07
-9.19421e-08
-1.84439e-07
-6.85125e-08
-1.59001e-07
-4.82458e-08
-1.32913e-07
-3.13113e-08
-1.06594e-07
-1.7868e-08
-8.05203e-08
-8.06753e-09
-5.52295e-08
-2.0597e-09
-3.13192e-08
-9.4797e-09
-2.38676e-09
1.28341e-08
-9.28052e-09
4.07734e-08
-2.04332e-08
7.01839e-08
-3.56076e-08
1.00389e-07
-5.4571e-08
1.3081e-07
-7.7091e-08
1.6093e-07
-1.02933e-07
1.90299e-07
-1.31857e-07
2.18525e-07
-1.63618e-07
2.45277e-07
-1.97964e-07
2.70276e-07
-2.34637e-07
2.93293e-07
-2.73372e-07
3.14142e-07
-3.139e-07
3.32677e-07
-3.55949e-07
3.4879e-07
-3.99245e-07
3.62403e-07
-4.4351e-07
3.73467e-07
-4.8847e-07
3.81958e-07
-5.33852e-07
3.87875e-07
-5.79384e-07
3.91235e-07
-6.24803e-07
3.92073e-07
-6.69848e-07
3.90437e-07
-7.14265e-07
3.86391e-07
-7.57811e-07
3.80006e-07
-8.00248e-07
3.71367e-07
-8.4135e-07
3.60562e-07
-8.809e-07
3.47691e-07
-9.18692e-07
3.32858e-07
-9.54533e-07
3.16171e-07
-9.88239e-07
2.97744e-07
-1.01964e-06
2.77697e-07
-1.04858e-06
2.56149e-07
-1.07491e-06
2.33227e-07
-1.09851e-06
2.09057e-07
-1.11925e-06
1.8377e-07
-1.13703e-06
1.57499e-07
-1.15177e-06
1.30379e-07
-1.16338e-06
1.02549e-07
-1.17181e-06
7.41472e-08
-1.17701e-06
4.53164e-08
-1.17895e-06
1.62006e-08
-1.17761e-06
-1.30542e-08
-1.173e-06
-4.23e-08
-1.16512e-06
-7.13872e-08
-1.15402e-06
-1.00165e-07
-1.13974e-06
-1.2848e-07
-1.12233e-06
-1.56179e-07
-1.10188e-06
-1.83109e-07
-1.07849e-06
-2.09116e-07
-1.05227e-06
-2.34044e-07