/*--------------------------------*- C++ -*----------------------------------*\
  =========                 |
  \\      /  F ield         | OpenFOAM: The Open Source CFD Toolbox
   \\    /   O peration     | Website:  https://openfoam.org
    \\  /    A nd           | Version:  7
     \\/     M anipulation  |
\*---------------------------------------------------------------------------*/
FoamFile
{
    version     2.0;
    format      ascii;
    class       volVectorField;
    location    "0.475";
    object      U;
}
// * * * * * * * * * * * * * * * * * * * * * * * * * * * * * * * * * * * * * //

dimensions      [0 1 -1 0 0 0 0];

internalField   nonuniform List<vector> 
6400
(
(7.19612e-06 -7.30381e-06 0)
(2.9727e-05 -1.44736e-05 0)
(5.9266e-05 -1.41865e-05 0)
(8.05984e-05 -9.7389e-06 0)
(8.54531e-05 -3.4291e-06 0)
(7.05899e-05 3.54276e-06 0)
(3.48858e-05 1.05628e-05 0)
(-2.16273e-05 1.73127e-05 0)
(-9.81947e-05 2.36303e-05 0)
(-0.000193627 2.9434e-05 0)
(-0.000306478 3.46854e-05 0)
(-0.000435151 3.93698e-05 0)
(-0.000577967 4.34858e-05 0)
(-0.000733204 4.70403e-05 0)
(-0.000899135 5.00451e-05 0)
(-0.00107404 5.25152e-05 0)
(-0.00125624 5.44679e-05 0)
(-0.00144407 5.59218e-05 0)
(-0.00163594 5.68964e-05 0)
(-0.00183028 5.74117e-05 0)
(-0.00202561 5.74881e-05 0)
(-0.00222049 5.71462e-05 0)
(-0.00241354 5.64066e-05 0)
(-0.00260346 5.52899e-05 0)
(-0.002789 5.38166e-05 0)
(-0.00296897 5.2007e-05 0)
(-0.00314227 4.98814e-05 0)
(-0.00330785 4.74599e-05 0)
(-0.00346473 4.47625e-05 0)
(-0.003612 4.18092e-05 0)
(-0.00374882 3.86198e-05 0)
(-0.0038744 3.52144e-05 0)
(-0.00398804 3.16127e-05 0)
(-0.00408911 2.7835e-05 0)
(-0.00417703 2.39014e-05 0)
(-0.00425131 1.98324e-05 0)
(-0.00431151 1.56488e-05 0)
(-0.0043573 1.13716e-05 0)
(-0.00438838 7.02231e-06 0)
(-0.00440456 2.6227e-06 0)
(-0.0044057 -1.80495e-06 0)
(-0.00439175 -6.23788e-06 0)
(-0.00436275 -1.06529e-05 0)
(-0.0043188 -1.50261e-05 0)
(-0.0042601 -1.93335e-05 0)
(-0.00418692 -2.35504e-05 0)
(-0.00409962 -2.76517e-05 0)
(-0.00399865 -3.1612e-05 0)
(-0.00388454 -3.54055e-05 0)
(-0.00375791 -3.90064e-05 0)
(-0.00361947 -4.23884e-05 0)
(-0.00347002 -4.55254e-05 0)
(-0.00331043 -4.83912e-05 0)
(-0.00314168 -5.09601e-05 0)
(-0.00296481 -5.32064e-05 0)
(-0.00278097 -5.51051e-05 0)
(-0.00259137 -5.66315e-05 0)
(-0.00239731 -5.7762e-05 0)
(-0.00220015 -5.84738e-05 0)
(-0.00200133 -5.87451e-05 0)
(-0.00180236 -5.85557e-05 0)
(-0.00160479 -5.78863e-05 0)
(-0.00141024 -5.67198e-05 0)
(-0.00122037 -5.50405e-05 0)
(-0.00103687 -5.2835e-05 0)
(-0.000861465 -5.00922e-05 0)
(-0.000695879 -4.68039e-05 0)
(-0.000541844 -4.29653e-05 0)
(-0.00040107 -3.85761e-05 0)
(-0.000275219 -3.36422e-05 0)
(-0.000165877 -2.81788e-05 0)
(-7.45043e-05 -2.22154e-05 0)
(-2.36857e-06 -1.58059e-05 0)
(4.95608e-05 -9.04817e-06 0)
(8.07895e-05 -2.12138e-06 0)
(9.15815e-05 4.6406e-06 0)
(8.33826e-05 1.06133e-05 0)
(5.97594e-05 1.46002e-05 0)
(2.92266e-05 1.43558e-05 0)
(6.87023e-06 6.87084e-06 0)
(1.4425e-05 -2.98868e-05 0)
(5.14978e-05 -5.15424e-05 0)
(8.97821e-05 -4.40953e-05 0)
(0.000103526 -1.91084e-05 0)
(7.7014e-05 1.53071e-05 0)
(2.39339e-06 5.41229e-05 0)
(-0.000124036 9.42602e-05 0)
(-0.000303192 0.00013383 0)
(-0.000534028 0.000171674 0)
(-0.000814181 0.000207074 0)
(-0.00114041 0.000239594 0)
(-0.0015089 0.000268971 0)
(-0.00191547 0.00029506 0)
(-0.00235572 0.000317797 0)
(-0.00282513 0.00033717 0)
(-0.00331914 0.000353208 0)
(-0.0038332 0.000365966 0)
(-0.00436283 0.000375523 0)
(-0.00490364 0.000381969 0)
(-0.00545134 0.000385409 0)
(-0.00600179 0.000385954 0)
(-0.00655097 0.000383721 0)
(-0.00709505 0.000378834 0)
(-0.00763035 0.000371418 0)
(-0.00815336 0.000361601 0)
(-0.00866075 0.000349512 0)
(-0.00914938 0.000335284 0)
(-0.00961627 0.000319048 0)
(-0.0100586 0.000300937 0)
(-0.0104739 0.000281086 0)
(-0.0108597 0.000259628 0)
(-0.0112138 0.000236699 0)
(-0.0115342 0.000212437 0)
(-0.0118191 0.000186979 0)
(-0.0120668 0.000160464 0)
(-0.012276 0.000133034 0)
(-0.0124454 0.000104833 0)
(-0.0125742 7.60048e-05 0)
(-0.0126614 4.66985e-05 0)
(-0.0127065 1.70644e-05 0)
(-0.0127091 -1.27443e-05 0)
(-0.0126692 -4.25717e-05 0)
(-0.0125869 -7.22587e-05 0)
(-0.0124624 -0.000101644 0)
(-0.0122963 -0.000130563 0)
(-0.0120894 -0.000158848 0)
(-0.0118429 -0.000186332 0)
(-0.0115578 -0.000212844 0)
(-0.0112358 -0.000238211 0)
(-0.0108787 -0.00026226 0)
(-0.0104884 -0.000284819 0)
(-0.0100672 -0.000305716 0)
(-0.00961761 -0.00032478 0)
(-0.00914237 -0.000341841 0)
(-0.00864443 -0.000356735 0)
(-0.008127 -0.000369302 0)
(-0.0075935 -0.000379385 0)
(-0.00704753 -0.000386837 0)
(-0.00649293 -0.000391516 0)
(-0.0059337 -0.000393292 0)
(-0.00537401 -0.000392045 0)
(-0.00481818 -0.000387669 0)
(-0.00427065 -0.00038007 0)
(-0.00373597 -0.000369173 0)
(-0.00321874 -0.000354923 0)
(-0.00272362 -0.00033729 0)
(-0.00225526 -0.000316269 0)
(-0.00181822 -0.000291894 0)
(-0.00141697 -0.000264241 0)
(-0.00105575 -0.000233451 0)
(-0.000738505 -0.000199743 0)
(-0.000468692 -0.000163458 0)
(-0.000249105 -0.000125114 0)
(-8.15745e-05 -8.55016e-05 0)
(3.34738e-05 -4.58505e-05 0)
(9.76293e-05 -8.09727e-06 0)
(0.000115275 2.46733e-05 0)
(9.48794e-05 4.75114e-05 0)
(5.2616e-05 5.25766e-05 0)
(1.43479e-05 2.92096e-05 0)
(1.42792e-05 -5.94532e-05 0)
(4.45442e-05 -8.99302e-05 0)
(6.12522e-05 -6.04847e-05 0)
(3.55917e-05 6.7149e-06 0)
(-5.08086e-05 9.62509e-05 0)
(-0.000208168 0.000197467 0)
(-0.000441821 0.000303131 0)
(-0.000753474 0.000408405 0)
(-0.00114209 0.000510066 0)
(-0.00160467 0.000605969 0)
(-0.00213679 0.000694699 0)
(-0.00273306 0.00077534 0)
(-0.00338743 0.000847323 0)
(-0.00409338 0.000910325 0)
(-0.00484414 0.000964203 0)
(-0.00563283 0.00100894 0)
(-0.00645248 0.00104462 0)
(-0.00729619 0.00107139 0)
(-0.00815717 0.00108947 0)
(-0.00902873 0.00109911 0)
(-0.0099044 0.00110058 0)
(-0.0107779 0.00109419 0)
(-0.0116431 0.00108028 0)
(-0.0124943 0.00105917 0)
(-0.013326 0.00103122 0)
(-0.0141327 0.000996793 0)
(-0.0149096 0.000956251 0)
(-0.0156519 0.000909966 0)
(-0.0163552 0.000858315 0)
(-0.0170155 0.000801679 0)
(-0.0176287 0.000740441 0)
(-0.0181915 0.000674991 0)
(-0.0187007 0.000605721 0)
(-0.0191534 0.000533027 0)
(-0.0195469 0.000457313 0)
(-0.0198792 0.000378984 0)
(-0.0201481 0.000298456 0)
(-0.0203523 0.000216146 0)
(-0.0204904 0.000132483 0)
(-0.0205615 4.78993e-05 0)
(-0.0205652 -3.71635e-05 0)
(-0.0205011 -0.000122257 0)
(-0.0203696 -0.000206924 0)
(-0.0201711 -0.000290702 0)
(-0.0199065 -0.00037312 0)
(-0.0195772 -0.000453703 0)
(-0.0191848 -0.000531968 0)
(-0.0187314 -0.00060743 0)
(-0.0182194 -0.000679599 0)
(-0.0176516 -0.000747988 0)
(-0.0170313 -0.000812107 0)
(-0.0163619 -0.000871469 0)
(-0.0156476 -0.000925596 0)
(-0.0148927 -0.000974014 0)
(-0.0141018 -0.00101626 0)
(-0.01328 -0.0010519 0)
(-0.0124328 -0.00108048 0)
(-0.0115657 -0.00110162 0)
(-0.0106849 -0.00111492 0)
(-0.00979653 -0.00112003 0)
(-0.00890725 -0.00111664 0)
(-0.00802375 -0.00110447 0)
(-0.00715296 -0.00108329 0)
(-0.00630191 -0.00105293 0)
(-0.00547774 -0.00101327 0)
(-0.00468758 -0.000964298 0)
(-0.00393851 -0.000906059 0)
(-0.00323745 -0.000838734 0)
(-0.00259108 -0.000762644 0)
(-0.00200568 -0.0006783 0)
(-0.00148692 -0.000586469 0)
(-0.00103971 -0.000488263 0)
(-0.000667816 -0.00038529 0)
(-0.000373486 -0.000279871 0)
(-0.000156896 -0.000175372 0)
(-1.54189e-05 -7.671e-05 0)
(5.71928e-05 8.91374e-06 0)
(7.19645e-05 7.10729e-05 0)
(4.79847e-05 9.4939e-05 0)
(1.46783e-05 5.98023e-05 0)
(1.00514e-05 -8.12106e-05 0)
(2.03974e-05 -0.000104412 0)
(-4.29465e-06 -3.51772e-05 0)
(-9.08025e-05 9.36639e-05 0)
(-0.000257275 0.000259344 0)
(-0.00051466 0.000445314 0)
(-0.000868868 0.00063971 0)
(-0.00132185 0.000834171 0)
(-0.00187246 0.00102284 0)
(-0.00251717 0.00120165 0)
(-0.00325067 0.00136778 0)
(-0.00406638 0.00151931 0)
(-0.00495676 0.001655 0)
(-0.00591364 0.00177408 0)
(-0.00692842 0.00187613 0)
(-0.00799224 0.001961 0)
(-0.00909614 0.00202876 0)
(-0.0102312 0.00207961 0)
(-0.0113884 0.00211388 0)
(-0.0125591 0.00213199 0)
(-0.0137348 0.00213445 0)
(-0.0149071 0.00212181 0)
(-0.016068 0.00209465 0)
(-0.0172098 0.00205361 0)
(-0.0183252 0.00199935 0)
(-0.0194071 0.00193255 0)
(-0.0204488 0.00185391 0)
(-0.0214441 0.00176413 0)
(-0.0223869 0.00166394 0)
(-0.0232719 0.00155407 0)
(-0.0240939 0.00143527 0)
(-0.0248481 0.00130829 0)
(-0.0255304 0.0011739 0)
(-0.0261368 0.00103286 0)
(-0.026664 0.000885965 0)
(-0.0271088 0.000734003 0)
(-0.0274689 0.000577784 0)
(-0.0277419 0.000418124 0)
(-0.0279264 0.000255856 0)
(-0.0280212 9.18265e-05 0)
(-0.0280254 -7.3106e-05 0)
(-0.0279389 -0.000238068 0)
(-0.027762 -0.000402171 0)
(-0.0274954 -0.000564516 0)
(-0.0271403 -0.000724191 0)
(-0.0266985 -0.000880271 0)
(-0.0261722 -0.00103182 0)
(-0.0255642 -0.00117791 0)
(-0.0248778 -0.00131759 0)
(-0.0241168 -0.00144992 0)
(-0.0232855 -0.00157396 0)
(-0.0223887 -0.00168878 0)
(-0.0214316 -0.00179345 0)
(-0.0204202 -0.00188708 0)
(-0.0193606 -0.00196878 0)
(-0.0182596 -0.00203771 0)
(-0.0171244 -0.00209306 0)
(-0.0159625 -0.00213406 0)
(-0.0147819 -0.00216 0)
(-0.0135909 -0.00217023 0)
(-0.0123982 -0.00216417 0)
(-0.0112125 -0.00214132 0)
(-0.010043 -0.00210129 0)
(-0.00889883 -0.00204381 0)
(-0.00778935 -0.00196872 0)
(-0.00672379 -0.00187604 0)
(-0.00571127 -0.00176597 0)
(-0.00476068 -0.00163895 0)
(-0.00388049 -0.00149573 0)
(-0.00307858 -0.00133741 0)
(-0.00236205 -0.00116559 0)
(-0.00173686 -0.000982544 0)
(-0.00120754 -0.00079141 0)
(-0.000776701 -0.000596563 0)
(-0.000444461 -0.000404084 0)
(-0.000207767 -0.000222446 0)
(-5.96118e-05 -6.34386e-05 0)
(1.19508e-05 5.6754e-05 0)
(2.61176e-05 0.000116203 0)
(1.09059e-05 8.38507e-05 0)
(4.01838e-06 -8.70545e-05 0)
(-1.30118e-05 -7.95428e-05 0)
(-9.19794e-05 4.99586e-05 0)
(-0.000253972 0.000259697 0)
(-0.000514836 0.000520274 0)
(-0.000885021 0.000809631 0)
(-0.0013701 0.00111137 0)
(-0.0019717 0.00141349 0)
(-0.00268823 0.00170728 0)
(-0.00351559 0.00198647 0)
(-0.00444767 0.00224655 0)
(-0.00547686 0.00248437 0)
(-0.00659442 0.0026978 0)
(-0.00779078 0.00288543 0)
(-0.00905581 0.00304644 0)
(-0.010379 0.00318047 0)
(-0.0117498 0.00328747 0)
(-0.0131573 0.00336768 0)
(-0.0145909 0.00342153 0)
(-0.01604 0.00344961 0)
(-0.0174944 0.00345267 0)
(-0.0189438 0.00343152 0)
(-0.0203786 0.00338709 0)
(-0.0217894 0.00332035 0)
(-0.0231671 0.00323233 0)
(-0.0245032 0.0031241 0)
(-0.0257894 0.00299677 0)
(-0.027018 0.00285147 0)
(-0.0281818 0.00268936 0)
(-0.029274 0.00251162 0)
(-0.0302882 0.00231945 0)
(-0.0312188 0.00211406 0)
(-0.0320605 0.00189669 0)
(-0.0328084 0.00166858 0)
(-0.0334585 0.00143102 0)
(-0.0340069 0.00118528 0)
(-0.0344505 0.000932673 0)
(-0.0347869 0.000674531 0)
(-0.0350139 0.000412202 0)
(-0.0351302 0.000147056 0)
(-0.0351348 -0.000119513 0)
(-0.0350275 -0.00038609 0)
(-0.0348087 -0.000651239 0)
(-0.0344792 -0.000913505 0)
(-0.0340406 -0.00117141 0)
(-0.0334951 -0.00142348 0)
(-0.0328456 -0.00166819 0)
(-0.0320953 -0.00190404 0)
(-0.0312483 -0.00212951 0)
(-0.0303094 -0.0023431 0)
(-0.0292838 -0.00254328 0)
(-0.0281774 -0.00272858 0)
(-0.0269967 -0.00289752 0)
(-0.0257489 -0.00304867 0)
(-0.0244417 -0.00318062 0)
(-0.0230831 -0.00329204 0)
(-0.0216821 -0.00338165 0)
(-0.0202478 -0.00344823 0)
(-0.0187899 -0.00349068 0)
(-0.0173186 -0.003508 0)
(-0.0158442 -0.00349929 0)
(-0.0143776 -0.00346382 0)
(-0.0129297 -0.00340102 0)
(-0.0115115 -0.00331051 0)
(-0.0101343 -0.00319214 0)
(-0.00880907 -0.00304602 0)
(-0.0075467 -0.0028726 0)
(-0.00635772 -0.0026727 0)
(-0.00525213 -0.00244763 0)
(-0.00423915 -0.0021993 0)
(-0.00332704 -0.00193039 0)
(-0.0025227 -0.00164457 0)
(-0.00183136 -0.00134683 0)
(-0.00125611 -0.00104388 0)
(-0.000797346 -0.000744768 0)
(-0.00045221 -0.000461634 0)
(-0.000213851 -0.000210793 0)
(-7.06146e-05 -1.38572e-05 0)
(-5.23326e-06 0.000100746 0)
(5.26193e-06 9.31423e-05 0)
(-2.66676e-06 -7.37708e-05 0)
(-5.09317e-05 -7.37898e-06 0)
(-0.000191891 0.000205462 0)
(-0.00043878 0.000516366 0)
(-0.000803715 0.00089039 0)
(-0.0012957 0.00130061 0)
(-0.00191922 0.00172645 0)
(-0.00267501 0.00215239 0)
(-0.00356073 0.00256685 0)
(-0.00457148 0.00296122 0)
(-0.00570032 0.00332919 0)
(-0.00693868 0.0036662 0)
(-0.00827672 0.00396906 0)
(-0.00970368 0.00423562 0)
(-0.0112081 0.00446453 0)
(-0.0127781 0.00465511 0)
(-0.0144015 0.00480714 0)
(-0.0160661 0.00492085 0)
(-0.0177596 0.00499674 0)
(-0.0194699 0.00503559 0)
(-0.021185 0.00503836 0)
(-0.0228933 0.0050062 0)
(-0.0245835 0.00494035 0)
(-0.0262447 0.00484221 0)
(-0.0278664 0.0047132 0)
(-0.0294386 0.00455488 0)
(-0.0309518 0.0043688 0)
(-0.0323969 0.00415661 0)
(-0.0337655 0.00391997 0)
(-0.0350496 0.0036606 0)
(-0.036242 0.00338022 0)
(-0.0373358 0.0030806 0)
(-0.0383249 0.00276355 0)
(-0.0392037 0.00243088 0)
(-0.0399674 0.00208445 0)
(-0.0406115 0.00172614 0)
(-0.0411324 0.00135785 0)
(-0.0415272 0.00098153 0)
(-0.0417935 0.000599148 0)
(-0.0419296 0.000212704 0)
(-0.0419345 -0.000175768 0)
(-0.0418079 -0.000564205 0)
(-0.0415503 -0.000950516 0)
(-0.0411627 -0.00133258 0)
(-0.040647 -0.00170825 0)
(-0.0400057 -0.00207537 0)
(-0.0392421 -0.00243174 0)
(-0.0383603 -0.00277519 0)
(-0.0373649 -0.00310351 0)
(-0.0362614 -0.00341452 0)
(-0.035056 -0.00370602 0)
(-0.0337557 -0.00397589 0)
(-0.032368 -0.00422199 0)
(-0.0309011 -0.00444226 0)
(-0.0293642 -0.00463471 0)
(-0.0277666 -0.0047974 0)
(-0.0261186 -0.00492851 0)
(-0.0244309 -0.00502634 0)
(-0.0227147 -0.00508932 0)
(-0.0209818 -0.00511603 0)
(-0.0192441 -0.00510526 0)
(-0.0175142 -0.00505601 0)
(-0.0158045 -0.00496752 0)
(-0.0141278 -0.00483933 0)
(-0.012497 -0.00467132 0)
(-0.0109246 -0.00446377 0)
(-0.00942303 -0.00421745 0)
(-0.00800423 -0.00393366 0)
(-0.00667952 -0.00361443 0)
(-0.00545932 -0.00326262 0)
(-0.00435293 -0.00288216 0)
(-0.00336817 -0.00247832 0)
(-0.00251104 -0.00205808 0)
(-0.00178529 -0.00163062 0)
(-0.001192 -0.00120799 0)
(-0.000729046 -0.000805932 0)
(-0.000390485 -0.000444956 0)
(-0.000165884 -0.000151529 0)
(-4.13312e-05 4.0409e-05 0)
(-1.09624e-06 8.43217e-05 0)
(-9.44574e-06 -4.01132e-05 0)
(-9.06007e-05 0.000116265 0)
(-0.000297635 0.00043759 0)
(-0.000634926 0.000870982 0)
(-0.00110999 0.00137716 0)
(-0.00172969 0.00192514 0)
(-0.00249684 0.00249065 0)
(-0.00341078 0.00305495 0)
(-0.00446807 0.00360369 0)
(-0.00566283 0.00412599 0)
(-0.00698714 0.00461366 0)
(-0.00843143 0.00506066 0)
(-0.00998483 0.00546266 0)
(-0.0116355 0.00581666 0)
(-0.0133707 0.00612071 0)
(-0.0151773 0.00637372 0)
(-0.017042 0.00657528 0)
(-0.018951 0.00672554 0)
(-0.0208908 0.00682505 0)
(-0.0228479 0.00687475 0)
(-0.0248088 0.00687586 0)
(-0.0267606 0.00682982 0)
(-0.0286906 0.00673828 0)
(-0.0305866 0.00660304 0)
(-0.0324367 0.00642602 0)
(-0.0342297 0.00620924 0)
(-0.0359548 0.00595483 0)
(-0.0376019 0.00566496 0)
(-0.0391614 0.0053419 0)
(-0.0406244 0.00498794 0)
(-0.0419826 0.00460545 0)
(-0.0432283 0.00419681 0)
(-0.0443546 0.00376448 0)
(-0.0453551 0.00331093 0)
(-0.0462244 0.00283867 0)
(-0.0469575 0.00235029 0)
(-0.0475503 0.00184836 0)
(-0.0479994 0.00133555 0)
(-0.0483022 0.000814538 0)
(-0.0484567 0.000288046 0)
(-0.048462 -0.000241157 0)
(-0.0483176 -0.00077026 0)
(-0.048024 -0.00129642 0)
(-0.0475826 -0.00181675 0)
(-0.0469953 -0.00232833 0)
(-0.0462652 -0.00282824 0)
(-0.0453958 -0.0033135 0)
(-0.0443918 -0.00378116 0)
(-0.0432585 -0.00422823 0)
(-0.0420021 -0.00465175 0)
(-0.0406296 -0.00504879 0)
(-0.0391488 -0.00541645 0)
(-0.0375683 -0.00575186 0)
(-0.0358973 -0.00605226 0)
(-0.034146 -0.00631496 0)
(-0.0323252 -0.00653739 0)
(-0.0304462 -0.00671711 0)
(-0.0285211 -0.00685186 0)
(-0.0265626 -0.00693956 0)
(-0.0245836 -0.00697837 0)
(-0.0225977 -0.00696669 0)
(-0.0206189 -0.00690326 0)
(-0.018661 -0.00678714 0)
(-0.0167384 -0.0066178 0)
(-0.0148653 -0.0063952 0)
(-0.0130556 -0.00611982 0)
(-0.0113231 -0.00579281 0)
(-0.00968104 -0.00541607 0)
(-0.00814191 -0.00499242 0)
(-0.00671727 -0.00452579 0)
(-0.00541742 -0.00402147 0)
(-0.00425114 -0.0034864 0)
(-0.00322536 -0.00292966 0)
(-0.00234474 -0.00236288 0)
(-0.00161135 -0.00180101 0)
(-0.00102431 -0.00126313 0)
(-0.000579182 -0.000773523 0)
(-0.00026743 -0.00036278 0)
(-7.93774e-05 -6.92212e-05 0)
(-7.5934e-06 5.60155e-05 0)
(-1.60566e-05 1.41774e-05 0)
(-0.000130455 0.000293219 0)
(-0.000405236 0.000749613 0)
(-0.000835652 0.00132773 0)
(-0.00142418 0.00198511 0)
(-0.00217508 0.00268751 0)
(-0.00308904 0.00340755 0)
(-0.00416366 0.00412366 0)
(-0.00539404 0.00481894 0)
(-0.00677309 0.00548034 0)
(-0.00829177 0.00609786 0)
(-0.00993945 0.00666397 0)
(-0.0117042 0.00717316 0)
(-0.013573 0.00762153 0)
(-0.0155322 0.00800649 0)
(-0.0175674 0.00832651 0)
(-0.019664 0.00858091 0)
(-0.0218073 0.00876975 0)
(-0.0239822 0.00889361 0)
(-0.0261742 0.00895359 0)
(-0.0283685 0.00895115 0)
(-0.0305509 0.00888806 0)
(-0.0327076 0.00876637 0)
(-0.0348251 0.00858832 0)
(-0.0368904 0.00835636 0)
(-0.0388912 0.00807304 0)
(-0.0408155 0.00774109 0)
(-0.0426523 0.00736329 0)
(-0.0443909 0.00694253 0)
(-0.0460216 0.0064818 0)
(-0.0475351 0.00598412 0)
(-0.048923 0.00545259 0)
(-0.0501776 0.00489038 0)
(-0.051292 0.00430069 0)
(-0.05226 0.00368681 0)
(-0.0530763 0.00305204 0)
(-0.0537364 0.00239977 0)
(-0.0542363 0.00173344 0)
(-0.0545734 0.00105651 0)
(-0.0547454 0.000372535 0)
(-0.0547512 -0.000314898 0)
(-0.0545904 -0.00100215 0)
(-0.0542635 -0.00168553 0)
(-0.053772 -0.0023613 0)
(-0.0531182 -0.00302569 0)
(-0.0523053 -0.00367491 0)
(-0.0513374 -0.00430512 0)
(-0.0502195 -0.0049125 0)
(-0.0489575 -0.0054932 0)
(-0.0475583 -0.00604341 0)
(-0.0460296 -0.00655934 0)
(-0.0443799 -0.00703726 0)
(-0.0426188 -0.00747351 0)
(-0.0407564 -0.00786453 0)
(-0.0388039 -0.00820688 0)
(-0.0367731 -0.00849728 0)
(-0.0346766 -0.00873263 0)
(-0.0325275 -0.00891004 0)
(-0.0303398 -0.0090269 0)
(-0.0281277 -0.0090809 0)
(-0.0259061 -0.00907005 0)
(-0.0236901 -0.00899279 0)
(-0.0214951 -0.00884802 0)
(-0.0193366 -0.00863516 0)
(-0.0172301 -0.00835424 0)
(-0.0151908 -0.00800601 0)
(-0.0132339 -0.00759206 0)
(-0.0113736 -0.00711492 0)
(-0.00962358 -0.00657827 0)
(-0.00799654 -0.00598718 0)
(-0.00650383 -0.00534834 0)
(-0.00515528 -0.00467041 0)
(-0.00395888 -0.0039645 0)
(-0.00292045 -0.00324463 0)
(-0.0020434 -0.00252845 0)
(-0.00132845 -0.00183805 0)
(-0.000773109 -0.00120097 0)
(-0.000371212 -0.000651136 0)
(-0.000117765 -0.000230176 0)
(-1.39529e-05 7.86661e-06 0)
(-2.23898e-05 8.8805e-05 0)
(-0.000169646 0.000523776 0)
(-0.000512307 0.0011427 0)
(-0.00103666 0.00188849 0)
(-0.00174 0.00271652 0)
(-0.00262375 0.00359007 0)
(-0.00368613 0.00447923 0)
(-0.0049227 0.00535996 0)
(-0.00632687 0.00621316 0)
(-0.0078901 0.00702377 0)
(-0.00960209 0.00778008 0)
(-0.011451 0.00847315 0)
(-0.0134239 0.0090963 0)
(-0.0155065 0.00964473 0)
(-0.0176842 0.0101152 0)
(-0.0199414 0.0105057 0)
(-0.0222626 0.0108152 0)
(-0.0246316 0.0110438 0)
(-0.0270326 0.011192 0)
(-0.0294497 0.0112611 0)
(-0.0318672 0.0112527 0)
(-0.0342696 0.0111691 0)
(-0.0366421 0.0110125 0)
(-0.03897 0.0107859 0)
(-0.0412394 0.0104921 0)
(-0.0434369 0.0101344 0)
(-0.0455497 0.00971599 0)
(-0.0475656 0.00924041 0)
(-0.0494733 0.00871121 0)
(-0.051262 0.00813211 0)
(-0.0529219 0.00750687 0)
(-0.0544437 0.00683937 0)
(-0.0558192 0.00613354 0)
(-0.0570408 0.00539341 0)
(-0.0581019 0.00462306 0)
(-0.0589966 0.00382664 0)
(-0.05972 0.00300839 0)
(-0.060268 0.00217258 0)
(-0.0606374 0.00132359 0)
(-0.0608261 0.000465844 0)
(-0.0608327 -0.000396176 0)
(-0.0606569 -0.00125791 0)
(-0.0602991 -0.00211476 0)
(-0.0597611 -0.00296205 0)
(-0.0590452 -0.00379508 0)
(-0.0581549 -0.00460911 0)
(-0.0570948 -0.00539935 0)
(-0.0558702 -0.00616105 0)
(-0.0544876 -0.00688942 0)
(-0.0529543 -0.0075797 0)
(-0.0512788 -0.00822721 0)
(-0.0494702 -0.00882729 0)
(-0.0475389 -0.00937542 0)
(-0.045496 -0.00986718 0)
(-0.0433533 -0.0102983 0)
(-0.0411238 -0.0106648 0)
(-0.038821 -0.0109628 0)
(-0.0364591 -0.0111887 0)
(-0.0340531 -0.0113395 0)
(-0.0316185 -0.0114121 0)
(-0.0291713 -0.0114044 0)
(-0.0267277 -0.0113144 0)
(-0.0243043 -0.0111407 0)
(-0.0219179 -0.0108829 0)
(-0.0195851 -0.010541 0)
(-0.0173224 -0.0101161 0)
(-0.0151459 -0.00961016 0)
(-0.0130712 -0.00902644 0)
(-0.011113 -0.00836952 0)
(-0.00928514 -0.0076456 0)
(-0.0076001 -0.00686277 0)
(-0.00606886 -0.00603139 0)
(-0.00470066 -0.00516449 0)
(-0.0035027 -0.00427835 0)
(-0.00247997 -0.00339306 0)
(-0.00163512 -0.00253335 0)
(-0.000967899 -0.00172946 0)
(-0.000474782 -0.001018 0)
(-0.000155609 -0.00044292 0)
(-2.00543e-05 -5.98994e-05 0)
(-2.84115e-05 0.000183195 0)
(-0.000207748 0.000807314 0)
(-0.000617484 0.00161664 0)
(-0.00123533 0.00255357 0)
(-0.00205347 0.00357211 0)
(-0.00307033 0.00463372 0)
(-0.00428154 0.00570649 0)
(-0.00568036 0.00676439 0)
(-0.00725831 0.00778636 0)
(-0.00900524 0.00875559 0)
(-0.0109094 0.00965882 0)
(-0.0129577 0.0104858 0)
(-0.015136 0.0112287 0)
(-0.0174289 0.0118819 0)
(-0.0198206 0.0124415 0)
(-0.0222947 0.012905 0)
(-0.0248343 0.0132712 0)
(-0.0274224 0.0135399 0)
(-0.030042 0.0137117 0)
(-0.0326763 0.0137882 0)
(-0.0353084 0.0137711 0)
(-0.037922 0.013663 0)
(-0.0405011 0.0134668 0)
(-0.0430303 0.0131857 0)
(-0.0454945 0.0128233 0)
(-0.0478795 0.0123833 0)
(-0.0501716 0.0118698 0)
(-0.0523579 0.0112869 0)
(-0.0544261 0.010639 0)
(-0.0563649 0.00993041 0)
(-0.0581636 0.00916584 0)
(-0.0598124 0.00834994 0)
(-0.0613024 0.0074875 0)
(-0.0626256 0.00658339 0)
(-0.0637749 0.00564258 0)
(-0.0647439 0.00467013 0)
(-0.0655274 0.00367116 0)
(-0.0661211 0.00265092 0)
(-0.0665216 0.00161468 0)
(-0.0667265 0.000567844 0)
(-0.0667344 -0.000484137 0)
(-0.0665448 -0.00153573 0)
(-0.0661584 -0.00258133 0)
(-0.0655769 -0.00361528 0)
(-0.0648029 -0.00463186 0)
(-0.0638401 -0.00562532 0)
(-0.0626933 -0.00658987 0)
(-0.0613683 -0.00751972 0)
(-0.059872 -0.00840909 0)
(-0.0582123 -0.00925223 0)
(-0.056398 -0.0100434 0)
(-0.0544392 -0.0107771 0)
(-0.0523466 -0.0114478 0)
(-0.0501322 -0.0120502 0)
(-0.0478087 -0.0125791 0)
(-0.0453899 -0.0130297 0)
(-0.0428901 -0.0133974 0)
(-0.0403247 -0.0136779 0)
(-0.0377095 -0.0138675 0)
(-0.035061 -0.0139628 0)
(-0.0323963 -0.013961 0)
(-0.0297327 -0.0138598 0)
(-0.027088 -0.0136579 0)
(-0.02448 -0.0133544 0)
(-0.0219264 -0.0129498 0)
(-0.0194449 -0.0124453 0)
(-0.0170527 -0.0118433 0)
(-0.0147664 -0.0111478 0)
(-0.0126021 -0.0103643 0)
(-0.0105747 -0.00950012 0)
(-0.0086978 -0.00856464 0)
(-0.00698378 -0.00756986 0)
(-0.00544325 -0.00653065 0)
(-0.00408496 -0.0054653 0)
(-0.00291571 -0.0043961 0)
(-0.0019403 -0.00335004 0)
(-0.00116089 -0.0023596 0)
(-0.00057674 -0.00146339 0)
(-0.000192461 -0.000706979 0)
(-2.58574e-05 -0.000146761 0)
(-3.41255e-05 0.000296656 0)
(-0.000244581 0.00114271 0)
(-0.000720061 0.00217039 0)
(-0.00143017 0.00332222 0)
(-0.00236218 0.00455144 0)
(-0.00351149 0.00581825 0)
(-0.00487103 0.00708923 0)
(-0.00643166 0.00833671 0)
(-0.00818284 0.00953805 0)
(-0.0101127 0.0106749 0)
(-0.0122078 0.0117326 0)
(-0.0144538 0.0126997 0)
(-0.0168352 0.0135675 0)
(-0.0193354 0.0143294 0)
(-0.0219376 0.014981 0)
(-0.0246242 0.0155194 0)
(-0.0273774 0.015943 0)
(-0.0301791 0.0162516 0)
(-0.0330113 0.0164459 0)
(-0.0358561 0.0165275 0)
(-0.038696 0.0164985 0)
(-0.0415135 0.0163618 0)
(-0.0442918 0.0161209 0)
(-0.0470145 0.0157793 0)
(-0.0496658 0.0153414 0)
(-0.0522306 0.0148116 0)
(-0.0546945 0.0141944 0)
(-0.0570437 0.0134949 0)
(-0.0592654 0.0127182 0)
(-0.0613474 0.0118696 0)
(-0.0632786 0.0109544 0)
(-0.0650485 0.00997824 0)
(-0.0666478 0.0089468 0)
(-0.0680679 0.00786587 0)
(-0.0693013 0.00674134 0)
(-0.0703414 0.00557923 0)
(-0.0711825 0.00438565 0)
(-0.0718201 0.00316679 0)
(-0.0722505 0.00192897 0)
(-0.0724713 0.000678586 0)
(-0.072481 -0.000577879 0)
(-0.072279 -0.00183385 0)
(-0.0718661 -0.00308267 0)
(-0.071244 -0.00431761 0)
(-0.0704154 -0.00553189 0)
(-0.0693844 -0.00671868 0)
(-0.0681559 -0.00787111 0)
(-0.0667361 -0.00898233 0)
(-0.0651322 -0.0100455 0)
(-0.0633525 -0.0110537 0)
(-0.0614065 -0.0120004 0)
(-0.0593046 -0.0128788 0)
(-0.0570583 -0.0136824 0)
(-0.0546802 -0.0144051 0)
(-0.0521838 -0.0150406 0)
(-0.0495835 -0.0155834 0)
(-0.0468946 -0.016028 0)
(-0.0441331 -0.0163694 0)
(-0.041316 -0.0166032 0)
(-0.0384607 -0.0167254 0)
(-0.0355851 -0.0167327 0)
(-0.0327076 -0.0166227 0)
(-0.0298471 -0.0163935 0)
(-0.0270223 -0.0160446 0)
(-0.0242521 -0.0155762 0)
(-0.0215553 -0.0149899 0)
(-0.0189502 -0.0142886 0)
(-0.0164547 -0.013477 0)
(-0.0140858 -0.0125613 0)
(-0.0118597 -0.01155 0)
(-0.00979148 -0.0104537 0)
(-0.00789481 -0.00928595 0)
(-0.00618187 -0.0080633 0)
(-0.00466313 -0.00680585 0)
(-0.00334736 -0.00553781 0)
(-0.00224161 -0.00428808 0)
(-0.00135061 -0.00309093 0)
(-0.000676369 -0.0019865 0)
(-0.000228131 -0.00102137 0)
(-3.13626e-05 -0.000252071 0)
(-3.9553e-05 0.000428473 0)
(-0.000280113 0.00152859 0)
(-0.000819752 0.00280244 0)
(-0.00162047 0.00419305 0)
(-0.00266485 0.00565334 0)
(-0.00394534 0.00714271 0)
(-0.00545213 0.00862663 0)
(-0.00717359 0.0100762 0)
(-0.00909704 0.0114674 0)
(-0.0112087 0.0127806 0)
(-0.0134935 0.014 0)
(-0.0159356 0.0151131 0)
(-0.018518 0.0161104 0)
(-0.0212232 0.0169844 0)
(-0.024033 0.0177303 0)
(-0.0269287 0.0183447 0)
(-0.0298914 0.018826 0)
(-0.0329022 0.0191738 0)
(-0.0359421 0.0193889 0)
(-0.0389923 0.0194729 0)
(-0.0420342 0.0194285 0)
(-0.0450496 0.0192588 0)
(-0.0480209 0.0189678 0)
(-0.0509308 0.0185598 0)
(-0.0537628 0.0180395 0)
(-0.0565011 0.0174121 0)
(-0.0591304 0.0166829 0)
(-0.0616364 0.0158578 0)
(-0.0640055 0.0149427 0)
(-0.0662252 0.0139436 0)
(-0.0682836 0.012867 0)
(-0.0701698 0.0117192 0)
(-0.0718739 0.0105069 0)
(-0.0733871 0.0092369 0)
(-0.0747013 0.00791603 0)
(-0.0758097 0.00655131 0)
(-0.0767064 0.00514988 0)
(-0.0773864 0.00371897 0)
(-0.0778461 0.00226596 0)
(-0.0780828 0.00079829 0)
(-0.0780949 -0.000676451 0)
(-0.0778818 -0.0021506 0)
(-0.0774444 -0.00361638 0)
(-0.0767843 -0.00506597 0)
(-0.0759044 -0.00649144 0)
(-0.074809 -0.00788485 0)
(-0.0735032 -0.00923819 0)
(-0.0719934 -0.0105435 0)
(-0.0702871 -0.0117927 0)
(-0.0683932 -0.012978 0)
(-0.0663214 -0.0140914 0)
(-0.0640828 -0.0151253 0)
(-0.0616893 -0.0160722 0)
(-0.059154 -0.0169247 0)
(-0.0564912 -0.0176758 0)
(-0.053716 -0.0183189 0)
(-0.0508443 -0.0188478 0)
(-0.0478931 -0.0192565 0)
(-0.04488 -0.01954 0)
(-0.0418234 -0.0196938 0)
(-0.0387421 -0.019714 0)
(-0.0356555 -0.0195978 0)
(-0.0325834 -0.0193432 0)
(-0.0295456 -0.0189494 0)
(-0.0265621 -0.0184168 0)
(-0.0236526 -0.0177472 0)
(-0.0208367 -0.016944 0)
(-0.0181333 -0.0160123 0)
(-0.015561 -0.0149593 0)
(-0.013137 -0.0137944 0)
(-0.0108779 -0.0125295 0)
(-0.00879893 -0.0111795 0)
(-0.00691382 -0.00976231 0)
(-0.00523495 -0.00829978 0)
(-0.00377316 -0.00681774 0)
(-0.00253787 -0.0053467 0)
(-0.00153636 -0.00392238 0)
(-0.000773396 -0.00258603 0)
(-0.000262588 -0.00138485 0)
(-3.65904e-05 -0.000375155 0)
(-4.47231e-05 0.000577952 0)
(-0.000314396 0.00196352 0)
(-0.000916535 0.00351105 0)
(-0.00180601 0.00516431 0)
(-0.00296096 0.00687621 0)
(-0.004371 0.00860569 0)
(-0.00602358 0.0103175 0)
(-0.00790457 0.0119816 0)
(-0.00999906 0.0135731 0)
(-0.0122913 0.0150714 0)
(-0.0147645 0.0164596 0)
(-0.0174011 0.0177243 0)
(-0.0201829 0.0188552 0)
(-0.0230909 0.0198444 0)
(-0.0261058 0.0206865 0)
(-0.0292077 0.0213778 0)
(-0.0323768 0.0219166 0)
(-0.0355931 0.0223023 0)
(-0.0388367 0.022536 0)
(-0.0420879 0.0226196 0)
(-0.0453273 0.0225559 0)
(-0.0485358 0.0223486 0)
(-0.051695 0.0220021 0)
(-0.0547869 0.0215213 0)
(-0.0577944 0.0209117 0)
(-0.0607007 0.0201791 0)
(-0.0634902 0.0193297 0)
(-0.0661479 0.0183701 0)
(-0.0686596 0.0173071 0)
(-0.0710123 0.0161476 0)
(-0.0731935 0.014899 0)
(-0.0751919 0.0135686 0)
(-0.0769973 0.0121641 0)
(-0.0786004 0.0106933 0)
(-0.0799928 0.00916398 0)
(-0.0811674 0.00758427 0)
(-0.082118 0.00596236 0)
(-0.0828395 0.00430658 0)
(-0.083328 0.00262537 0)
(-0.0835807 0.000927335 0)
(-0.083596 -0.000778842 0)
(-0.0833732 -0.00248434 0)
(-0.0829131 -0.00418025 0)
(-0.0822174 -0.00585755 0)
(-0.0812893 -0.00750717 0)
(-0.0801329 -0.00911996 0)
(-0.0787536 -0.0106868 0)
(-0.0771582 -0.0121984 0)
(-0.0753543 -0.0136456 0)
(-0.0733511 -0.0150195 0)
(-0.0711588 -0.0163108 0)
(-0.0687887 -0.017511 0)
(-0.0662535 -0.0186112 0)
(-0.0635666 -0.0196031 0)
(-0.060743 -0.0204787 0)
(-0.0577982 -0.0212304 0)
(-0.054749 -0.0218509 0)
(-0.0516131 -0.0223338 0)
(-0.0484089 -0.022673 0)
(-0.0451554 -0.0228633 0)
(-0.0418725 -0.0229006 0)
(-0.0385805 -0.0227814 0)
(-0.0353 -0.0225035 0)
(-0.032052 -0.022066 0)
(-0.0288573 -0.0214693 0)
(-0.0257371 -0.0207153 0)
(-0.0227118 -0.0198079 0)
(-0.0198018 -0.0187527 0)
(-0.0170267 -0.0175577 0)
(-0.0144054 -0.016233 0)
(-0.0119558 -0.0147918 0)
(-0.00969479 -0.0132501 0)
(-0.00763791 -0.0116272 0)
(-0.00579947 -0.00994648 0)
(-0.00419246 -0.00823504 0)
(-0.00282869 -0.00652478 0)
(-0.00171802 -0.00485258 0)
(-0.000867833 -0.00326052 0)
(-0.000295895 -0.00179615 0)
(-4.15711e-05 -0.000515363 0)
(-4.96679e-05 0.000744453 0)
(-0.000347529 0.0024461 0)
(-0.00101055 0.00429445 0)
(-0.00198691 0.00623412 0)
(-0.00325054 0.00821824 0)
(-0.00478834 0.0102055 0)
(-0.00658507 0.0121602 0)
(-0.0086241 0.0140516 0)
(-0.0108883 0.015854 0)
(-0.0133597 0.017546 0)
(-0.0160199 0.0191099 0)
(-0.0188497 0.0205316 0)
(-0.0218293 0.0218002 0)
(-0.0249384 0.0229073 0)
(-0.0281563 0.0238471 0)
(-0.0314622 0.0246158 0)
(-0.0348351 0.0252115 0)
(-0.0382539 0.0256338 0)
(-0.041698 0.0258837 0)
(-0.0451467 0.0259634 0)
(-0.0485797 0.0258764 0)
(-0.0519773 0.0256266 0)
(-0.0553203 0.025219 0)
(-0.05859 0.0246592 0)
(-0.0617685 0.0239533 0)
(-0.0648387 0.023108 0)
(-0.067784 0.0221302 0)
(-0.0705892 0.0210273 0)
(-0.0732394 0.0198071 0)
(-0.0757211 0.0184775 0)
(-0.0780215 0.0170467 0)
(-0.080129 0.0155231 0)
(-0.0820327 0.0139154 0)
(-0.0837231 0.0122324 0)
(-0.0851916 0.010483 0)
(-0.0864307 0.00867647 0)
(-0.087434 0.00682198 0)
(-0.0881963 0.00492903 0)
(-0.0887134 0.00300721 0)
(-0.0889825 0.00106625 0)
(-0.0890018 -0.000883982 0)
(-0.0887706 -0.00283348 0)
(-0.0882897 -0.00477214 0)
(-0.0875609 -0.00668974 0)
(-0.0865872 -0.00857599 0)
(-0.085373 -0.0104205 0)
(-0.0839238 -0.0122129 0)
(-0.0822466 -0.0139428 0)
(-0.0803492 -0.0155998 0)
(-0.0782411 -0.0171735 0)
(-0.0759328 -0.0186538 0)
(-0.073436 -0.0200307 0)
(-0.0707637 -0.0212943 0)