/*--------------------------------*- C++ -*----------------------------------*\
  =========                 |
  \\      /  F ield         | OpenFOAM: The Open Source CFD Toolbox
   \\    /   O peration     | Website:  https://openfoam.org
    \\  /    A nd           | Version:  7
     \\/     M anipulation  |
\*---------------------------------------------------------------------------*/
FoamFile
{
    version     2.0;
    format      ascii;
    class       volScalarField;
    location    "0.075";
    object      p;
}
// * * * * * * * * * * * * * * * * * * * * * * * * * * * * * * * * * * * * * //

dimensions      [0 2 -2 0 0 0 0];

internalField   nonuniform List<scalar> 
6400
(
7.0836e-06
3.59052e-05
-0.000435744
-0.00141636
-0.00279407
-0.00446043
-0.00631767
-0.00827915
-0.0102703
-0.0122276
-0.0140977
-0.0158361
-0.0174059
-0.0187766
-0.0199229
-0.0208248
-0.0214669
-0.0218376
-0.021929
-0.0217359
-0.0212558
-0.0204891
-0.0194382
-0.0181079
-0.0165042
-0.0146351
-0.0125097
-0.0101392
-0.00753598
-0.00471349
-0.00168644
0.00152956
0.00491815
0.00846218
0.0121436
0.0159434
0.0198424
0.0238208
0.0278584
0.0319344
0.0360274
0.040116
0.0441788
0.0481944
0.0521415
0.0559983
0.0597437
0.063357
0.0668184
0.0701085
0.0732088
0.0761011
0.0787683
0.0811945
0.0833652
0.085268
0.0868921
0.0882286
0.0892705
0.090013
0.0904537
0.0905932
0.0904352
0.089987
0.0892593
0.0882666
0.0870275
0.0855649
0.0839068
0.0820867
0.0801446
0.0781279
0.0760919
0.0741016
0.0722321
0.0705691
0.0692068
0.0682462
0.0677919
0.0678277
1.26682e-05
3.52619e-05
-0.000389465
-0.00122835
-0.0023866
-0.00378669
-0.00535484
-0.00702098
-0.00872227
-0.0104033
-0.0120158
-0.0135186
-0.0148771
-0.0160621
-0.0170492
-0.0178185
-0.0183546
-0.0186455
-0.0186827
-0.0184603
-0.0179754
-0.0172273
-0.0162174
-0.0149495
-0.0134287
-0.0116617
-0.0096568
-0.00742407
-0.0049747
-0.00232094
0.000523708
0.00354473
0.00672685
0.0100541
0.0135097
0.0170761
0.0207351
0.0244682
0.0282565
0.0320803
0.0359197
0.0397546
0.0435652
0.0473314
0.0510329
0.0546497
0.0581619
0.0615503
0.0647967
0.0678832
0.0707926
0.0735081
0.076014
0.0782957
0.0803403
0.0821367
0.0836753
0.0849486
0.0859505
0.0866771
0.0871271
0.0873018
0.0872057
0.0868465
0.0862351
0.0853862
0.084318
0.0830527
0.0816168
0.0800423
0.0783662
0.0766319
0.0748894
0.0731951
0.0716124
0.0702107
0.069061
0.0682359
0.0678266
0.0678635
0.000519305
0.000485729
5.52765e-05
-0.000721709
-0.00176274
-0.00300668
-0.0043942
-0.00586709
-0.00737179
-0.00886026
-0.0102894
-0.0116218
-0.0128252
-0.013872
-0.0147395
-0.0154085
-0.0158639
-0.0160938
-0.0160894
-0.0158446
-0.0153562
-0.0146231
-0.013646
-0.0124278
-0.0109727
-0.00928689
-0.00737803
-0.00525525
-0.00292875
-0.000409829
0.00228893
0.00515389
0.00817068
0.0113243
0.014599
0.0179783
0.0214451
0.0249818
0.0285703
0.0321922
0.0358288
0.0394611
0.0430702
0.0466371
0.0501427
0.0535681
0.0568945
0.0601041
0.0631797
0.0661047
0.0688628
0.0714383
0.0738165
0.0759841
0.0779293
0.0796419
0.0811134
0.0823369
0.0833072
0.084021
0.0844776
0.0846789
0.0846295
0.0843375
0.0838138
0.0830726
0.0821314
0.0810114
0.0797377
0.0783399
0.0768522
0.0753142
0.0737703
0.0722701
0.0708677
0.0696207
0.0685868
0.0678243
0.0674159
0.0674116
0.00152802
0.0013482
0.000846558
6.35087e-05
-0.000938015
-0.00210704
-0.00339368
-0.0047488
-0.00612637
-0.00748468
-0.00878592
-0.00999638
-0.0110865
-0.0120311
-0.0128086
-0.0134015
-0.0137953
-0.0139784
-0.0139421
-0.0136806
-0.0131905
-0.0124703
-0.0115206
-0.0103435
-0.00894284
-0.00732425
-0.0054948
-0.00346294
-0.00123811
0.00116916
0.003747
0.00648246
0.00936201
0.0123716
0.0154963
0.0187205
0.0220278
0.0254014
0.0288243
0.032279
0.0357476
0.0392123
0.0426549
0.0460572
0.049401
0.0526685
0.0558421
0.0589048
0.0618403
0.0646328
0.0672669
0.0697278
0.0720017
0.0740763
0.0759404
0.0775848
0.0790016
0.0801843
0.0811283
0.0818309
0.0822916
0.0825124
0.0824984
0.0822572
0.0817995
0.0811389
0.0802919
0.0792785
0.0781219
0.0768493
0.0754923
0.0740862
0.0726707
0.0712892
0.0699884
0.068817
0.0678242
0.0670599
0.0665894
0.0664551
0.00293012
0.00253016
0.00190327
0.00106731
5.71363e-05
-0.00108457
-0.00231591
-0.00359604
-0.004886
-0.0061497
-0.0073544
-0.00847024
-0.00947078
-0.0103331
-0.0110377
-0.0115682
-0.0119109
-0.0120553
-0.0119931
-0.0117186
-0.0112285
-0.0105212
-0.00959676
-0.00845726
-0.00710631
-0.00554898
-0.00379176
-0.00184242
0.000290229
0.00259616
0.0050641
0.00768184
0.0104367
0.0133155
0.016304
0.0193874
0.0225498
0.0257753
0.0290479
0.032351
0.0356677
0.0389806
0.0422724
0.0455257
0.0487234
0.0518485
0.0548844
0.0578148
0.0606243
0.0632977
0.0658203
0.0681784
0.0703589
0.0723501
0.0741417
0.075725
0.0770925
0.0782383
0.0791581
0.0798495
0.0803122
0.0805484
0.0805629
0.0803631
0.0799593
0.079364
0.0785928
0.077664
0.0765991
0.0754229
0.0741636
0.0728531
0.071526
0.0702201
0.0689752
0.0678324
0.0668336
0.0660211
0.0654341
0.0650937
0.00462865
0.00396179
0.00316932
0.00224228
0.00118381
2.95247e-05
-0.00118531
-0.00242747
-0.00366453
-0.00486561
-0.00600232
-0.00704886
-0.00798202
-0.0087813
-0.00942906
-0.00991031
-0.0102127
-0.0103265
-0.0102443
-0.00996077
-0.0094725
-0.00877786
-0.007877
-0.00677192
-0.00546604
-0.003964
-0.00227174
-0.000396507
0.0016533
0.00386812
0.00623727
0.0087493
0.0113923
0.0141537
0.01702
0.0199768
0.0230091
0.0261019
0.0292399
0.0324073
0.0355879
0.0387649
0.0419219
0.0450422
0.0481096
0.0511079
0.0540212
0.0568341
0.0595316
0.0620993
0.0645232
0.0667902
0.0688879
0.0708054
0.0725329
0.074062
0.0753856
0.0764983
0.0773958
0.0780761
0.0785388
0.0787861
0.0788225
0.0786551
0.0782932
0.0777487
0.0770357
0.076171
0.0751741
0.0740674
0.0728761
0.0716282
0.0703542
0.0690863
0.0678582
0.066704
0.0656598
0.0647609
0.064016
0.0634209
0.00653771
0.00557749
0.00459151
0.00354366
0.00240461
0.00120394
-2.81142e-05
-0.00126491
-0.0024798
-0.003647
-0.00474224
-0.00574326
-0.00662991
-0.00738426
-0.00799058
-0.00843553
-0.0087081
-0.00879957
-0.00870327
-0.00841429
-0.00792952
-0.00724757
-0.00636872
-0.00529493
-0.0040294
-0.00257644
-0.00094166
0.000867992
0.00284446
0.00497867
0.00726055
0.00967932
0.0122236
0.0148815
0.0176398
0.0204849
0.0234026
0.0263785
0.0293981
0.0324461
0.0355069
0.0385646
0.0416032
0.044607
0.0475603
0.0504479
0.0532543
0.0559646
0.0585646
0.0610403
0.0633785
0.0655664
0.0675925
0.0694462
0.071118
0.0726
0.0738853
0.0749686
0.075846
0.0765153
0.0769761
0.0772304
0.0772823
0.0771384
0.0768071
0.0762993
0.0756277
0.0748075
0.0738564
0.0727943
0.0716434
0.0704284
0.0691756
0.0679124
0.066667
0.0654677
0.0643453
0.0633295
0.062398
0.0615201
0.00858219
0.00731575
0.00611823
0.00492777
0.00368336
0.00240963
0.00113308
-0.000125307
-0.00134412
-0.00250195
-0.00357843
-0.00455471
-0.00541339
-0.00613889
-0.00671756
-0.00713785
-0.0073902
-0.00746686
-0.00736181
-0.00707076
-0.00659113
-0.00592191
-0.0050636
-0.00401809
-0.00278841
-0.00137869
0.000205593
0.00195766
0.00386981
0.00593346
0.0081391
0.0104764
0.0129346
0.0155018
0.0181659
0.0209135
0.0237313
0.0266054
0.0295218
0.032466
0.0354227
0.0383767
0.0413127
0.0442157
0.0470705
0.0498625
0.0525768
0.0551991
0.0577153
0.0601121
0.0623768
0.0644973
0.0664622
0.0682614
0.0698857
0.0713274
0.0725797
0.0736374
0.0744967
0.0751552
0.0756126
0.0758703
0.0759321
0.0758037
0.0754927
0.0750089
0.0743638
0.073571
0.072646
0.0716067
0.0704725
0.0692648
0.0680061
0.0667199
0.0654294
0.0641576
0.0629316
0.0617764
0.0606392
0.0594648
0.0106986
0.00912226
0.00770228
0.0063536
0.0049854
0.0036182
0.00227526
0.000973233
-0.000271057
-0.00144018
-0.00251735
-0.00348667
-0.00433338
-0.00504418
-0.00560756
-0.00601366
-0.00625424
-0.0063226
-0.00621355
-0.00592353
-0.00545057
-0.00479409
-0.00395476
-0.00293448
-0.00173628
-0.000364335
0.00117596
0.00287805
0.00473457
0.00673735
0.00887723
0.0111443
0.013528
0.0160172
0.0186001
0.0212639
0.0239957
0.0267824
0.0296103
0.0324654
0.035333
0.0381984
0.0410469
0.0438639
0.0466352
0.0493461
0.0519825
0.0545302
0.0569758
0.0593064
0.0615095
0.0635734
0.0654873
0.067241
0.0688257
0.0702336
0.0714581
0.072494
0.0733374
0.0739858
0.0744385
0.0746966
0.0747633
0.0746434
0.0743438
0.073873
0.0732413
0.0724607
0.071545
0.0705097
0.0693718
0.0681497
0.0668627
0.0655304
0.0641723
0.0628066
0.0614575
0.0601465
0.0587924
0.0573167
0.0128337
0.0109494
0.0093017
0.00778411
0.00627824
0.00480178
0.00337541
0.00201186
0.000724203
-0.000473607
-0.00156782
-0.00254529
-0.00339382
-0.00410238
-0.00466132
-0.00506237
-0.00529854
-0.00536426
-0.00525537
-0.00496911
-0.00450409
-0.00386008
-0.00303797
-0.00203986
-0.000868971
0.00047046
0.00197312
0.00363266
0.005442
0.00739319
0.00947738
0.011685
0.0140057
0.0164289
0.0189431
0.0215362
0.0241957
0.0269088
0.0296623
0.0324426
0.0352354
0.0380267
0.0408022
0.0435479
0.0462497
0.0488937
0.0514657
0.0539522
0.0563399
0.0586163
0.0607693
0.0627875
0.06466
0.0663771
0.0679299
0.0693105
0.0705125
0.0715306
0.0723605
0.0729997
0.073447
0.0737031
0.0737705
0.0736533
0.0733573
0.07289
0.0722603
0.0714789
0.0705578
0.0695104
0.0683514
0.0670967
0.0657625
0.0643655
0.0629215
0.0614452
0.0599586
0.0584805
0.0569032
0.0551271
0.0149427
0.0127555
0.0108786
0.00918533
0.00753198
0.00593411
0.00441091
0.00297153
0.00162593
0.000385092
-0.000739849
-0.00173833
-0.00260052
-0.00331749
-0.00388128
-0.00428504
-0.00452311
-0.00459116
-0.00448603
-0.00420573
-0.0037494
-0.00311721
-0.00231044
-0.00133149
-0.000183778
0.00112837
0.00259968
0.00422398
0.00599431
0.00790291
0.00994113
0.0120996
0.0143685
0.0167374
0.0191952
0.0217303
0.0243305
0.0269833
0.0296761
0.0323953
0.0351275
0.0378588
0.0405754
0.0432637
0.04591
0.0485005
0.0510215
0.0534596
0.0558019
0.058036
0.0601502
0.062133
0.0639738
0.065663
0.0671914
0.0685514
0.0697363
0.0707405
0.0715597
0.072191
0.0726329
0.0728853
0.0729502
0.0728307
0.0725319
0.0720599
0.0714227
0.0706294
0.0696903
0.0686171
0.0674224
0.0661196
0.0647228
0.0632459
0.0617016
0.0601017
0.0584668
0.056814
0.0550108
0.0529381
0.0169883
0.0145046
0.0123991
0.0105263
0.00871862
0.00699045
0.0053599
0.0038334
0.00241816
0.00112268
-4.43653e-05
-0.00107471
-0.00196059
-0.00269487
-0.00327119
-0.00368417
-0.00392957
-0.00400415
-0.00390568
-0.00363287
-0.00318546
-0.00256415
-0.00177067
-0.000807748
0.000320984
0.00161111
0.00305734
0.00465355
0.00639288
0.00826767
0.0102694
0.012389
0.0146168
0.0169427
0.019356
0.0218454
0.024399
0.0270046
0.0296498
0.0323215
0.0350066
0.0376916
0.0403631
0.0430077
0.0456119
0.0481622
0.0506451
0.0530474
0.0553564
0.0575599
0.0596461
0.061604
0.0634227
0.0650925
0.0666043
0.0679503
0.0691235
0.0701182
0.07093
0.0715552
0.0719921
0.07224
0.0722999
0.0721744
0.0718673
0.0713841
0.0707313
0.0699167
0.0689492
0.0678386
0.0665959
0.0652326
0.0637604
0.0621912
0.0605352
0.0588017
0.0570106
0.0551781
0.0531485
0.0507846
0.018939
0.0161654
0.0138332
0.0117789
0.00981226
0.00794734
0.00620148
0.00457902
0.00308485
0.00172531
0.000506813
-0.000564321
-0.00148208
-0.00224095
-0.00283616
-0.00326384
-0.00352098
-0.00360539
-0.00351565
-0.00325123
-0.00281254
-0.00220085
-0.00141836
-0.00046812
0.000645995
0.00191943
0.00334684
0.00492207
0.00663829
0.00848786
0.0104624
0.012553
0.0147503
0.0170444
0.0194249
0.0218806
0.0243999
0.026971
0.0295815
0.0322189
0.0348702
0.0375223
0.040162
0.0427762
0.0453515
0.0478745
0.050332
0.0527109
0.0549986
0.0571829
0.0592522
0.0611952
0.0630013
0.0646604
0.0661634
0.0675022
0.0686695
0.0696596
0.0704673
0.0710889
0.0715219
0.0717649
0.0718185
0.0716841
0.0713648
0.070865
0.07019
0.0693464
0.0683417
0.0671844
0.0658836
0.0644493
0.0628916
0.0612201
0.0594433
0.0575686
0.0556155
0.0536002
0.051345
0.0486956
0.0207675
0.0177107
0.0151541
0.0129175
0.010789
0.00878264
0.00691563
0.00519042
0.00360996
0.00217873
0.000901321
-0.000217671
-0.00117383
-0.00196321
-0.00258256
-0.00302932
-0.0033016
-0.00339817
-0.00331847
-0.00306277
-0.00263212
-0.00202841
-0.00125427
-0.000313103
0.000790952
0.00205315
0.00346803
0.00502937
0.00673028
0.00856315
0.0105197
0.0125912
0.0147685
0.0170417
0.0194007
0.0218344
0.0243316
0.0268805
0.029469
0.032085
0.0347155
0.0373479
0.039969
0.0425658
0.0451251
0.0476337
0.0500783
0.052446
0.0547241
0.0569007
0.0589638
0.0609023
0.0627052
0.0643624
0.0658645
0.067203
0.0683707
0.0693611
0.0701689
0.0707898
0.0712206
0.0714595
0.071506
0.071361
0.0710265
0.0705059
0.0698035
0.0689247
0.0678758
0.066664
0.0652972
0.0637835
0.0621317
0.0603502
0.0584454
0.0564235
0.0543043
0.0521039
0.0496245
0.0466953
0.0224502
0.0191161
0.0163378
0.0139188
0.0116267
0.00947565
0.00748313
0.00564998
0.00397753
0.00246867
0.00112653
-4.58581e-05
-0.0010456
-0.00187019
-0.00251773
-0.00298684
-0.00327665
-0.00338687
-0.00331784
-0.00307057
-0.00264682
-0.00204898
-0.00128019
-0.000344192
0.000754584
0.00201115
0.00341987
0.00497441
0.00666782
0.00849249
0.0104402
0.0125024
0.0146698
0.0169329
0.0192816
0.021705
0.0241919
0.0267308
0.02931
0.0319171
0.0345399
0.0371654
0.0397808
0.0423731
0.0449291
0.0474358
0.04988
0.0522485
0.054529
0.056709
0.0587769
0.0607211
0.0625304
0.0641946
0.065704
0.0670498
0.0682243
0.0692207
0.0700331
0.0706568
0.071088
0.071324
0.0713638
0.0712073
0.0708557
0.0703114
0.0695777
0.0686589
0.0675603
0.0662879
0.0648483
0.0632485
0.061496
0.0595978
0.0575595
0.0553858
0.0530972
0.0507107
0.0480085
0.0448044
0.0239658
0.0203598
0.0173625
0.0147614
0.0123047
0.0100067
0.00788549
0.00594054
0.00417182
0.00258088
0.00116955
-6.05246e-05
-0.00110782
-0.00197117
-0.00264985
-0.00314352
-0.00345234
-0.00357694
-0.00351852
-0.00327883
-0.00286025
-0.00226575
-0.0014989
-0.000563841
0.000534668
0.00179135
0.00320039
0.00475531
0.00644908
0.00827407
0.0102221
0.0122846
0.0144525
0.0167161
0.0190654
0.0214899
0.0239784
0.0265195
0.0291015
0.0317125
0.03434
0.0369714
0.0395939
0.0421944
0.0447599
0.0472773
0.0497332
0.0521148
0.0544093
0.0566043
0.0586878
0.0606481
0.0624737
0.0641542
0.0656793
0.0670401
0.0682284
0.0692368
0.0700591
0.0706898
0.0711245
0.0713599
0.0713941
0.0712262
0.0708567
0.0702868
0.0695191
0.0685568
0.0674043
0.0660664
0.0645489
0.0628576
0.060999
0.0589791
0.0568025
0.0544734
0.0520131
0.0494394
0.0465158
0.0430408
0.0252953
0.021422
0.0182078
0.0154255
0.0128036
0.0103572
0.00810497
0.00604543
0.00417729
0.00250099
0.00101714
-0.000273786
-0.00137153
-0.0022761
-0.00298781
-0.00350736
-0.00383585
-0.00397483
-0.00392631
-0.00369274
-0.0032771
-0.00268289
-0.00191419
-0.000975533
0.000127964
0.00139072
0.0028067
0.0043693
0.00607139
0.00790527
0.00986276
0.0119352
0.0141136
0.0163883
0.0187494
0.0211863
0.023688
0.0262433
0.0288405
0.0314677
0.0341125
0.0367625
0.0394047
0.0420261
0.0446137
0.0471542
0.0496343
0.052041
0.0543614
0.0565828
0.0586931
0.06068
0.0625322
0.0642384
0.0657882
0.0671723
0.0683818
0.069409
0.0702469
0.0708895
0.0713316
0.0715694
0.0716
0.0714219
0.0710345
0.0704383
0.069635
0.0686269
0.0674175
0.0660106
0.0644111
0.0626241
0.060655
0.0585093
0.0561909
0.0537034
0.0510694
0.0483077
0.0451634
0.0414202
0.0264214
0.0222843
0.0188553
0.0158922
0.013105
0.0105093
0.00812445
0.00594832
0.00397852
0.0022145
0.000655811
-0.000698162
-0.00184826
-0.00279554
-0.00354129
-0.00408719
-0.00443529
-0.00458797
-0.004548
-0.00431849
-0.00390301
-0.00330561
-0.00253088
-0.00158377
-0.000469774
0.000805232
0.00223498
0.00381272
0.00553122
0.00738265
0.00935876
0.0114509
0.0136499
0.0159462
0.0183299
0.0207905
0.0233172
0.0258986
0.0285232
0.0311789
0.0338536
0.0365346
0.0392092
0.0418642
0.0444864
0.0470626
0.0495793
0.0520234
0.0543816
0.0566412
0.0587895
0.0608141
0.0627031
0.064445
0.066029
0.067445
0.0686837
0.0697369
0.0705969
0.071257
0.0717113
0.0719553
0.0719853
0.071799
0.0713949
0.0707728
0.0699333
0.0688782
0.0676099
0.0661316
0.0644472
0.0625612
0.0604783
0.0582036
0.0557404
0.0530921
0.0502825
0.0473318
0.0439669
0.0399571
0.0273278
0.0229295
0.0192872
0.0161438
0.0131912
0.0104456
0.00792718
0.00563305
0.00356007
0.00170678
7.17839e-05
-0.00134656
-0.00255005
-0.00354067
-0.00432067
-0.00489268
-0.00525962
-0.00542465
-0.00539123
-0.00516314
-0.00474453
-0.00414003
-0.00335471
-0.00239397
-0.00126366
3.00336e-05
0.00148061
0.00308117
0.00482429
0.00670202
0.00870596
0.0108274
0.0130572
0.0153857
0.017803
0.0202987
0.0228619
0.0254813
0.0281454
0.030842
0.0335589
0.0362837
0.0390033
0.0417045
0.0443741
0.0469986
0.0495645
0.0520582
0.0544665
0.0567761
0.058974
0.0610475
0.0629842
0.0647722
0.0664001
0.0678573
0.069134
0.0702211
0.0711103
0.0717943
0.0722664
0.0725213
0.0725546
0.072363
0.0719444
0.0712976
0.0704226
0.0693202
0.0679921
0.0664408
0.0646696
0.0626822
0.0604831
0.0580767
0.0554663
0.0526549
0.0496679
0.0465269
0.0429408
0.0386645
0.0279991
0.0233414
0.0194867
0.0161634
0.0130452
0.0101492
0.00749658
0.00508362
0.00290653
0.000963092
-0.000748986
-0.00223226
-0.0034894
-0.00452326
-0.00533703
-0.00593421
-0.00631853
-0.00649389
-0.00646443
-0.00623457
-0.00580906
-0.00519309
-0.00439224
-0.00341233
-0.00225956
-0.000940436
0.000538295
0.00216953
0.00394565
0.00585851
0.00789959
0.0100601
0.0123308
0.0147021
0.017164
0.0197062
0.0223176
0.024987
0.0277026
0.0304524
0.0332242
0.0360052
0.0387826
0.0415429
0.0442726
0.0469582
0.0495859
0.052142
0.0546127
0.0569845
0.0592439
0.0613779
0.0633736
0.0652185
0.0669008
0.0684091
0.0697329
0.0708625
0.0717889
0.0725039
0.0730002
0.0732716
0.0733129
0.0731201
0.07269
0.0720209
0.0711117
0.0699627
0.0685749
0.0669501
0.0650909
0.0630007
0.0606834
0.0581434
0.0553835
0.052407
0.0492405
0.0459075
0.0420988
0.0375548
0.0284204
0.023504
0.0194373
0.0159342
0.0126502
0.00960355
0.00681622
0.00428403
0.00200241
-3.15155e-05
-0.00182085
-0.00336896
-0.00467932
-0.00575566
-0.00660205
-0.0072228
-0.0076224
-0.00780545
-0.00777677
-0.00754144
-0.00710478
-0.00647254
-0.00565079
-0.00464577
-0.00346404
-0.00211244
-0.000597978
0.001072
0.00288966
0.00484665
0.00693432
0.00914382
0.0114658
0.0138906
0.0164082
0.0190082
0.0216795
0.0244108
0.0271901
0.0300056
0.0328447
0.0356948
0.0385428
0.041375
0.0441779
0.0469376
0.04964
0.0522712
0.0548171
0.0572636
0.0595969
0.0618035
0.0638699
0.0657831
0.0675306
0.0691004
0.0704813
0.0716627
0.0726349
0.073389
0.0739168
0.0742111
0.0742662
0.0740769
0.0736394
0.0729511
0.0720103
0.0708164
0.0693698
0.0676717
0.0657242
0.0635302
0.0610935
0.0584181
0.0555069
0.052363
0.049015
0.0454876
0.0414541
0.0366398
0.028577
0.0234016
0.0191227
0.0154396
0.0119895
0.00879193
0.00586968
0.00321812
0.000831978
-0.0012923
-0.00315852
-0.00477075
-0.00613329
-0.00725073
-0.00812795
-0.00877002
-0.00918216
-0.00936967
-0.00933803
-0.00909298
-0.00864042
-0.00798663
-0.00713817
-0.00610169
-0.00488413
-0.00349268
-0.00193465
-0.000217633
0.00165032
0.00366064
0.00580454
0.00807306
0.0104568
0.012946
0.0155304
0.0181997
0.0209426
0.0237478
0.0266032
0.0294967
0.0324159
0.0353479
0.0382795
0.0411968
0.044086
0.0469329
0.0497234
0.0524428
0.0550769
0.057611
0.060031
0.0623226
0.064472
0.0664654
0.0682897
0.0699321
0.0713806
0.0726239
0.0736514
0.0744533
0.0750206
0.0753454
0.0754207
0.0752408
0.0748009
0.0740976
0.0731284
0.0718921
0.0703884
0.0686181
0.0665826
0.0642846
0.0617276
0.0589155
0.0558511
0.0525376
0.0490055
0.0452811
0.0410195
0.0359311
0.0284539
0.0230183
0.0185265
0.0146629
0.0110465
0.00769763
0.00464038
0.00186955
-0.000620785
-0.00283485
-0.00477704
-0.00645214
-0.00786526
-0.00902182
-0.00992744
-0.010588
-0.0110093
-0.0111974
-0.0111586
-0.010899
-0.0104253
-0.00974416
-0.00886272
-0.00778802
-0.0065274
-0.00508841
-0.00347868
-0.00170604
0.000221192
0.00229426
0.00450424
0.00684206
0.00929817
0.0118626
0.0145252
0.0172753
0.0201017
0.0229928
0.0259366
0.0289208
0.031933
0.03496
0.0379883
0.0410041
0.0439929
0.0469406
0.0498325
0.0526537
0.0553893
0.0580245
0.0605443
0.0629341
0.0651792
0.0672654
0.0691786
0.0709053
0.0724328
0.0737488
0.0748418
0.0757012
0.076317
0.0766804
0.0767835
0.0766195
0.0761831
0.0754698
0.0744765
0.0732012
0.0716431
0.0698022
0.0676797
0.0652779
0.0626
0.0596501
0.0564307
0.0529454
0.0492263
0.0453018
0.0408081
0.0354408
0.0280359
0.0223385
0.0176325
0.0135874
0.00980418
0.0063038
0.00311154
0.000221715
-0.00237224
-0.00467511
-0.00669189
-0.00842812
-0.00988971
-0.0110828
-0.0120139
-0.0126894
-0.0131159
-0.0133004
-0.0132494
-0.01297
-0.0124694
-0.0117546
-0.0108335
-0.00971338
-0.00840208
-0.00690752
-0.00523764
-0.00340054
-0.00140476
0.00074075
0.00302688
0.00544442
0.00798368
0.0106345
0.0133866
0.0162292
0.0191511
0.0221404
0.0251852
0.0282729
0.0313909
0.0345261
0.0376646
0.0407923
0.0438945
0.0469566
0.0499637
0.0529006
0.0557517
0.0585017
0.0611351
0.0636365
0.0659908
0.0681828
0.0701978
0.0720215
0.07364
0.0750403
0.07621
0.0771374
0.0778115
0.0782226
0.0783619
0.0782217
0.0777956
0.0770783
0.076066
0.0747559
0.0731466
0.0712376
0.0690297
0.0665247
0.0637258
0.060637
0.057261
0.0536014
0.0496923
0.0455639
0.0408336
0.0351812
0.0273075
0.0213458
0.0164238
0.0121962
0.00824528
0.00459311
0.0012659
-0.00174249
-0.00443918
-0.00682949
-0.00891908
-0.0107143
-0.0122217
-0.0134483
-0.0144011
-0.0150875
-0.0155149
-0.0156906
-0.0156222
-0.0153172
-0.0147832
-0.0140281
-0.01306
-0.0118869
-0.0105169
-0.00895844
-0.00721964
-0.0053089
-0.00323499
-0.0010071
0.00136549
0.00387339
0.00650672
0.00925519
0.0121083
0.0150552
0.0180847
0.0211847
0.024343
0.0275471
0.0307842
0.034041
0.0373033
0.0405566
0.0437861
0.0469768
0.0501133
0.05318
0.0561609
0.05904
0.0618013
0.0644286
0.0669061
0.0692179
0.0713483
0.0732821
0.0750046
0.0765018
0.0777601
0.0787669
0.0795103
0.0799793
0.0801643
0.0800564
0.0796484
0.0789341
0.0779088
0.0765691
0.0749126
0.0729386
0.0706473
0.0680404
0.0651207
0.0618923
0.0583579
0.0545216
0.0504191
0.0460827
0.0411102
0.0351656
0.0262526
0.0200233
0.0148831
0.0104715
0.00635202
0.00254766
-0.000914384
-0.00404071
-0.00683896
-0.009315
-0.0114752
-0.0133267
-0.0148768
-0.0161332
-0.0171037
-0.0177965
-0.0182195
-0.018381
-0.0182891
-0.0179519
-0.0173778
-0.0165751
-0.0155524
-0.0143183
-0.0128812
-0.01125
-0.00943316
-0.00743927
-0.00527737
-0.0029569
-0.000487327
0.00212175
0.00486027
0.00771776
0.0106836
0.0137469
0.0168961
0.0201193
0.0234041
0.0267377
0.0301072
0.0334991
0.036899
0.040292
0.043663
0.0469966
0.0502771
0.0534884
0.0566138
0.0596369
0.0625409
0.065309
0.0679244
0.0703705
0.0726307
0.0746889
0.0765293
0.0781367
0.0794967
0.0805955
0.0814199
0.0819582
0.0821993
0.0821336
0.0817526
0.0810492
0.0800179
0.0786543
0.0769557
0.0749205
0.0725486
0.0698413
0.0668014
0.0634329
0.0597386
0.0557228
0.0514234
0.0468744
0.0416535
0.0354083
0.0248543
0.0183534
0.0129925
0.00839521
0.00410605
0.000148994
-0.00344771
-0.00669114
-0.00958949
-0.0121493
-0.0143776
-0.0162823
-0.0178714
-0.0191534
-0.0201369
-0.0208307
-0.0212438
-0.021385
-0.021263
-0.0208867
-0.0202649
-0.0194068
-0.0183214
-0.0170177
-0.0155048
-0.0137917
-0.0118873
-0.00980038
-0.00754032
-0.00511679
-0.0025395
0.000181758
0.00303675
0.00601484
0.00910526
0.012297
0.0155785
0.0189377
0.0223619
0.0258383
0.0293538
0.0328945
0.036446
0.039993
0.04352
0.0470113
0.0504507
0.0538216
0.0571069
0.0602894
0.0633515
0.0662759
0.0690448
0.0716406
0.074046
0.0762436
0.0782167
0.0799489
0.0814246
0.0826289
0.0835475
0.0841673
0.0844763
0.0844635
0.0841195
0.0834361
0.0824068
0.0810263
0.0792913
0.0771994
0.0747503
0.0719449
0.0687857
0.0652768
0.0614211
0.0572231
0.0527228
0.047956
0.0424798
0.0359246
0.023095
0.0163181
0.0107333
0.00594847
0.00148841
-0.00262191
-0.00635303
-0.00971255
-0.0127093
-0.0153506
-0.0176442
-0.0195984
-0.0212224
-0.0225252
-0.0235164
-0.0242056
-0.0246024
-0.0247165
-0.0245572
-0.0241342
-0.0234569
-0.022535
-0.0213783
-0.0199961
-0.018398
-0.0165934
-0.0145914
-0.0124013
-0.0100326
-0.00749529
-0.00479932
-0.00195464
0.00102833
0.00413879
0.00736586
0.0106984
0.0141248
0.0176328
0.0212096
0.0248422
0.0285174
0.0322211
0.0359385
0.039654
0.0433518
0.0470159
0.0506296
0.0541757
0.0576367
0.0609945
0.0642309
0.0673277
0.0702663
0.0730282
0.0755949
0.0779481
0.0800697
0.0819422
0.0835489
0.0848734
0.0859004
0.0866154
0.0870051
0.0870574
0.0867616
0.0861082
0.0850899
0.0837005
0.0819356
0.0797926
0.0772704
0.0743695
0.0710925
0.0674432
0.0634247
0.0590416
0.0543361
0.0493461
0.0436067
0.0367308
0.0209563
0.0138984
0.00808621
0.00311159
-0.00152079
-0.00578489
-0.0096501
-0.0131245
-0.0162179
-0.018938
-0.0212934
-0.0232932
-0.0249472
-0.0262656
-0.0272586
-0.0279367
-0.0283104
-0.02839
-0.0281857
-0.0277078
-0.0269664
-0.0259719
-0.0247345
-0.0232643
-0.0215712
-0.0196649
-0.0175551
-0.0152512
-0.0127631
-0.010101
-0.00727505
-0.00429547
-0.00117279
0.00208206
0.00545804
0.00894395
0.0125281
0.0161979
0.0199407
0.0237432
0.0275919
0.0314728
0.0353705
0.0392694
0.0431532
0.0470055
0.0508093
0.0545467
0.0581996
0.0617493
0.0651768
0.068463
0.0715884
0.0745335
0.0772786
0.0798044
0.0820914
0.084121
0.085875
0.0873358
0.0884866
0.0893117
0.0897963
0.089927
0.0896916
0.0890797
0.0880825
0.0866931
0.0849062
0.0827183
0.0801278
0.0771349
0.0737417
0.0699523
0.0657696
0.0611986
0.0562834
0.051064
0.045053
0.0378447
0.018419
0.0110743
0.00503082
-0.000136101
-0.00494229
-0.00936068
-0.0133595
-0.0169476
-0.0201354
-0.0229313
-0.0253446
-0.0273854
-0.0290642
-0.0303922
-0.0313805
-0.0320405
-0.0323834
-0.0324204
-0.0321626
-0.0316209
-0.0308062
-0.0297295
-0.0284018
-0.0268335
-0.0250349
-0.0230165
-0.020788
-0.0183593
-0.0157406
-0.0129423
-0.0099749
-0.00684865
-0.00357426
-0.000162807
0.00337456
0.00702655
0.0107813
0.0146263
0.0185485
0.0225347
0.0265712
0.0306436
0.0347365
0.0388338
0.0429191
0.0469755
0.0509855
0.0549308
0.0587925
0.0625512
0.0661872
0.0696805
0.0730105
0.0761567
0.0790985
0.0818149
0.0842855
0.08649
0.088409
0.0900233
0.0913147
0.092266
0.092861
0.0930846
0.0929234
0.0923655
0.091401
0.0900217
0.0882214
0.0859959
0.0833428
0.0802619
0.076755
0.072826
0.0684779
0.0637158
0.0585861
0.0531308
0.0468389
0.0392858
0.0154626
0.00782489
0.00154586
-0.00381612
-0.00879772
-0.0133709
-0.0175029
-0.0212032
-0.0244829
-0.0273511
-0.029818
-0.0318946
-0.0335924
-0.0349234
-0.0358997
-0.0365338
-0.0368376
-0.0368233
-0.0365027
-0.0358877
-0.0349898
-0.0338208
-0.0323921
-0.030715
-0.0288001
-0.0266583
-0.0242999
-0.021735
-0.0189741
-0.016028
-0.0129072
-0.00962221
-0.00618385
-0.00260334
0.00110809
0.00493905
0.00887762
0.0129112
0.0170265
0.0212104
0.0254489
0.0297275
0.0340305
0.0383417
0.0426443
0.046921
0.0511538
0.0553239
0.0594118
0.0633973
0.0672599
0.0709787
0.0745321
0.0778984
0.0810558
0.0839822
0.0866555
0.0890541
0.0911569
0.0929434
0.0943936
0.0954888
0.096211
0.0965436
0.0964717
0.0959819
0.0950627
0.093705
0.0919013
0.0896464
0.0869372
0.083773
0.0801552
0.0760876
0.0715731
0.0666168
0.0612676
0.0555694
0.0489867
0.0410752
0.0120657
0.00412812
-0.0023912
-0.00795118
-0.0131099
-0.0178384
-0.0221031
-0.0259138
-0.0292825
-0.0322192
-0.0347349
-0.0368415
-0.0385517
-0.0398784
-0.0408348
-0.0414343
-0.0416899
-0.0416147
-0.0412214
-0.0405226
-0.0395309
-0.0382586
-0.0367179
-0.0349205
-0.0328777
-0.030601
-0.0281008
-0.0253879
-0.0224728
-0.0193667
-0.0160803
-0.0126242
-0.00900933
-0.00524707
-0.00134871
0.0026743
0.00680997
0.0110456
0.0153679
0.0197636
0.0242186
0.0287182
0.0332467
0.0377874
0.0423233
0.0468369
0.0513095
0.0557219
0.0600539
0.0642846
0.0683926
0.0723561
0.0761524
0.0797588
0.0831521
0.0863087
0.0892051
0.0918183
0.0941253
0.096104
0.0977327
0.0989908
0.0998587
0.100318
0.100352
0.0999458
0.0990863
0.0977628
0.0959668
0.0936919
0.0909343
0.0876923
0.0839672
0.0797624
0.0750806
0.0699272
0.0643532
0.0584049
0.0515211
0.0432367
0.00820504
-3.97099e-05
-0.00680436
-0.0125654
-0.0179032
-0.0227877
-0.0271842
-0.0311034
-0.0345579
-0.0375586
-0.0401175
-0.0422478
-0.043963
-0.0452773
-0.0462049
-0.0467603
-0.0469577
-0.046811
-0.0463341
-0.0455405
-0.0444434
-0.043056
-0.0413913
-0.0394615
-0.0372787
-0.0348547
-0.0322005
-0.0293271
-0.0262454
-0.0229668
-0.0195021
-0.0158622
-0.0120581
-0.0081012
-0.00400287
0.000225412
0.00457161
0.00902297
0.0135663
0.018188
0.0228741
0.0276098
0.0323791
0.0371652
0.0419508
0.046718
0.0514479
0.0561205
0.060715
0.0652098
0.0695828
0.0738109
0.0778707
0.081738
0.0853883
0.0887968
0.0919381
0.0947876
0.0973206
0.099513
0.101341
0.102783
0.103817
0.104422
0.104581
0.104275
0.103491
0.102216
0.100441
0.0981565
0.095359
0.0920459
0.0882177
0.0838777
0.0790282
0.0736747
0.0678708
0.0616649
0.0544689
0.0457962
0.00385636
-0.00470365
-0.0117191
-0.0176846
-0.0232034
-0.0282445
-0.0327719
-0.036797
-0.0403335
-0.0433932
-0.0459894
-0.048136
-0.0498481
-0.0511408
-0.0520299
-0.0525307
-0.0526588
-0.0524293
-0.0518569
-0.0509562
-0.0497412
-0.0482261
-0.0464245
-0.0443495
-0.0420138
-0.0394296
-0.0366084
-0.0335615
-0.0303003
-0.0268362
-0.0231803
-0.0193436
-0.0153372
-0.0111725
-0.00686102
-0.00241413
0.00215613
0.006837
0.0116152
0.0164773
0.0214093
0.0263961
0.0314218
0.0364694
0.0415213
0.0465594
0.0515641
0.0565152
0.0613911
0.0661696
0.0708277
0.0753413
0.0796858
0.083836
0.0877658
0.0914488
0.0948582
0.0979672
0.100749
0.103179
0.10523
0.106878
0.1081
0.108873
0.109175
0.10899
0.108299
0.107088
0.105347
0.103066
0.100238
0.0968618
0.0929358
0.0884632
0.083446
0.0778899
0.0718508
0.0653795
0.0578596
0.0487819
-0.001006
-0.00989001
-0.0171622
-0.0233359
-0.0290379
-0.034236
-0.038893
-0.0430212
-0.0466354
-0.0497486
-0.052375
-0.0545299
-0.0562297
-0.0574908
-0.0583303
-0.058765
-0.0588117
-0.0584866
-0.0578058
-0.0567846
-0.0554383
-0.0537819
-0.0518298
-0.0495959
-0.0470935
-0.0443353
-0.0413336
-0.0380997
-0.0346454
-0.0309824
-0.027122
-0.0230752
-0.0188532
-0.0144675
-0.00992943
-0.00525044
-0.0004425
0.0044817
0.00950899
0.0146259
0.0198184
0.0250717
0.0303694
0.0356946
0.0410296
0.0463558
0.0516535
0.0569017
0.0620784
0.0671608
0.0721247
0.0769454
0.081597
0.0860529
0.0902857
0.0942673
0.0979691
0.101362
0.104419
0.10711
0.109409
0.111288
0.112722
0.113685
0.114154
0.114109
0.113531
0.112403
0.110712
0.108447
0.105602
0.10217
0.0981528
0.093551
0.0883668
0.0826057
0.0763262
0.0695813
0.061725
0.0522248
-0.00640896
-0.0156265
-0.023162
-0.029548
-0.0354352
-0.0407906
-0.0455757
-0.0498038
-0.0534909
-0.0566512