/*--------------------------------*- C++ -*----------------------------------*\
  =========                 |
  \\      /  F ield         | OpenFOAM: The Open Source CFD Toolbox
   \\    /   O peration     | Website:  https://openfoam.org
    \\  /    A nd           | Version:  7
     \\/     M anipulation  |
\*---------------------------------------------------------------------------*/
FoamFile
{
    version     2.0;
    format      ascii;
    class       volScalarField;
    location    "0.0125";
    object      p;
}
// * * * * * * * * * * * * * * * * * * * * * * * * * * * * * * * * * * * * * //

dimensions      [0 2 -2 0 0 0 0];

internalField   nonuniform List<scalar> 
25600
(
1.07317e-06
0.0345527
0.0718843
0.0445248
-0.0521352
-0.197577
-0.37297
-0.563363
-0.758773
-0.950679
-1.13478
-1.30796
-1.46801
-1.61454
-1.74709
-1.86531
-1.9704
-2.06249
-2.14286
-2.21301
-2.27331
-2.32531
-2.3707
-2.41016
-2.44424
-2.47401
-2.49941
-2.52086
-2.53989
-2.55632
-2.56985
-2.58081
-2.58931
-2.59555
-2.60021
-2.60359
-2.60539
-2.60535
-2.60359
-2.60053
-2.59652
-2.59196
-2.58726
-2.58201
-2.57569
-2.56826
-2.56001
-2.55139
-2.54251
-2.53355
-2.52459
-2.51519
-2.50536
-2.49545
-2.48556
-2.47564
-2.4654
-2.45484
-2.44453
-2.43473
-2.42563
-2.4176
-2.4107
-2.40474
-2.39957
-2.39534
-2.39249
-2.39112
-2.39077
-2.39101
-2.39194
-2.3938
-2.39663
-2.40004
-2.40346
-2.4065
-2.40906
-2.41112
-2.41268
-2.41378
-2.41448
-2.41482
-2.41459
-2.41345
-2.41134
-2.4087
-2.40599
-2.40318
-2.39992
-2.39604
-2.39161
-2.38671
-2.38136
-2.3756
-2.36948
-2.36311
-2.35675
-2.35064
-2.34482
-2.33905
-2.33322
-2.32742
-2.32184
-2.31648
-2.31118
-2.30586
-2.3005
-2.29518
-2.28988
-2.28452
-2.27903
-2.27347
-2.26809
-2.26321
-2.25909
-2.2558
-2.2533
-2.25152
-2.25052
-2.25041
-2.25129
-2.25314
-2.2558
-2.25898
-2.26248
-2.26624
-2.27038
-2.27501
-2.28007
-2.28537
-2.2909
-2.29694
-2.30384
-2.31164
-2.3199
-2.3281
-2.33605
-2.34396
-2.35205
-2.36026
-2.36814
-2.37518
-2.38114
-2.38621
-2.39078
-2.39512
-2.39933
-2.40332
-2.40695
-2.41016
-2.4129
-2.41529
-2.41751
-2.41958
-2.42138
-2.42261
-2.42285
-2.42197
-2.4208
-2.42233
0.0353101
-0.0244363
-0.0649981
-0.139282
-0.251838
-0.390127
-0.545117
-0.709444
-0.87603
-1.04128
-1.20045
-1.35153
-1.49253
-1.62276
-1.74199
-1.85035
-1.94709
-2.03325
-2.1099
-2.17714
-2.23607
-2.28769
-2.33259
-2.37196
-2.40718
-2.43815
-2.46514
-2.48846
-2.50851
-2.5258
-2.54038
-2.55221
-2.56163
-2.56879
-2.57379
-2.5772
-2.5793
-2.58006
-2.57957
-2.57789
-2.57506
-2.57131
-2.56697
-2.56202
-2.55624
-2.54974
-2.54254
-2.53468
-2.52655
-2.51842
-2.5103
-2.50195
-2.4931
-2.484
-2.4749
-2.46557
-2.456
-2.44642
-2.43709
-2.42809
-2.41955
-2.41198
-2.40578
-2.40055
-2.39586
-2.39194
-2.38917
-2.38762
-2.3871
-2.3873
-2.38811
-2.38963
-2.39169
-2.39394
-2.39631
-2.39881
-2.40111
-2.40292
-2.40424
-2.40505
-2.40538
-2.40549
-2.40536
-2.40445
-2.40256
-2.40026
-2.39799
-2.39555
-2.39255
-2.38905
-2.38521
-2.38095
-2.37616
-2.3709
-2.36525
-2.35937
-2.35354
-2.34801
-2.34267
-2.33717
-2.33146
-2.32585
-2.32062
-2.31568
-2.31076
-2.30576
-2.30078
-2.29598
-2.29133
-2.28663
-2.28169
-2.27659
-2.27169
-2.26745
-2.26407
-2.26144
-2.25933
-2.25769
-2.25675
-2.25676
-2.2578
-2.25964
-2.262
-2.26471
-2.26775
-2.27117
-2.27494
-2.279
-2.28326
-2.28773
-2.29259
-2.29817
-2.30468
-2.31193
-2.31942
-2.32668
-2.33371
-2.34082
-2.34825
-2.35584
-2.36307
-2.36946
-2.37481
-2.37938
-2.38361
-2.38778
-2.39193
-2.39588
-2.39944
-2.40253
-2.40522
-2.40772
-2.41028
-2.41295
-2.41554
-2.4178
-2.41952
-2.42072
-2.42214
-2.42585
0.0726655
-0.0646559
-0.163108
-0.273253
-0.400932
-0.538381
-0.681922
-0.829035
-0.976847
-1.12206
-1.2629
-1.39698
-1.52305
-1.63996
-1.74804
-1.84704
-1.93665
-2.01737
-2.08933
-2.15352
-2.21082
-2.26102
-2.30523
-2.34446
-2.37922
-2.41044
-2.43844
-2.46274
-2.48334
-2.50128
-2.51656
-2.52914
-2.53942
-2.5474
-2.55302
-2.55676
-2.55904
-2.56013
-2.56036
-2.55976
-2.55811
-2.55541
-2.55165
-2.54696
-2.54154
-2.5356
-2.52917
-2.52201
-2.51454
-2.50718
-2.49964
-2.49187
-2.4839
-2.47561
-2.46705
-2.45813
-2.44898
-2.4401
-2.43151
-2.42305
-2.41503
-2.40788
-2.40191
-2.39697
-2.39261
-2.38894
-2.38628
-2.38451
-2.38349
-2.38342
-2.38423
-2.38558
-2.3871
-2.3886
-2.39011
-2.39189
-2.39383
-2.39547
-2.39652
-2.39708
-2.39737
-2.3974
-2.397
-2.39596
-2.39435
-2.39246
-2.39048
-2.38824
-2.3855
-2.38233
-2.37888
-2.37516
-2.37098
-2.36619
-2.36093
-2.35553
-2.35033
-2.34536
-2.34036
-2.3351
-2.32966
-2.32439
-2.3195
-2.31491
-2.31038
-2.3058
-2.30129
-2.29703
-2.293
-2.28893
-2.28453
-2.27986
-2.27542
-2.27177
-2.26904
-2.26694
-2.26513
-2.26365
-2.26286
-2.2631
-2.26433
-2.26619
-2.26833
-2.27069
-2.2734
-2.27657
-2.28007
-2.28365
-2.2872
-2.29089
-2.29512
-2.30027
-2.3064
-2.31311
-2.31983
-2.32621
-2.3324
-2.33883
-2.34571
-2.35275
-2.35934
-2.36501
-2.3697
-2.37378
-2.37772
-2.38175
-2.38577
-2.38953
-2.39282
-2.39565
-2.39824
-2.40085
-2.40375
-2.40691
-2.41009
-2.41301
-2.41566
-2.41832
-2.42163
-2.42715
0.0448972
-0.139001
-0.273134
-0.404509
-0.539625
-0.674214
-0.808834
-0.942319
-1.07491
-1.20402
-1.32928
-1.44906
-1.56194
-1.6673
-1.76531
-1.8554
-1.93807
-2.01292
-2.08007
-2.14074
-2.195
-2.24354
-2.2869
-2.32523
-2.35934
-2.39036
-2.41789
-2.4422
-2.46346
-2.48152
-2.49693
-2.51011
-2.52088
-2.52938
-2.53589
-2.54039
-2.54311
-2.5446
-2.54517
-2.54492
-2.5439
-2.54211
-2.53917
-2.53495
-2.5299
-2.52429
-2.51828
-2.51184
-2.50505
-2.49826
-2.49126
-2.48392
-2.47653
-2.46889
-2.46085
-2.45248
-2.44379
-2.43522
-2.42708
-2.41915
-2.41164
-2.40499
-2.39915
-2.39402
-2.38973
-2.38633
-2.38378
-2.38188
-2.38046
-2.3798
-2.38021
-2.38133
-2.38238
-2.38318
-2.38419
-2.38549
-2.38668
-2.3876
-2.3884
-2.38901
-2.38927
-2.38916
-2.3886
-2.3874
-2.38575
-2.38411
-2.3825
-2.38045
-2.3778
-2.37491
-2.37201
-2.36884
-2.36506
-2.3607
-2.35604
-2.35136
-2.34676
-2.34221
-2.33755
-2.33264
-2.32762
-2.32279
-2.3183
-2.31405
-2.30986
-2.30574
-2.30185
-2.29827
-2.29483
-2.29123
-2.28729
-2.28319
-2.27941
-2.27638
-2.27413
-2.27239
-2.27089
-2.26974
-2.2693
-2.26983
-2.27122
-2.27307
-2.27508
-2.27725
-2.27976
-2.28271
-2.2859
-2.28902
-2.292
-2.29511
-2.29883
-2.30351
-2.30909
-2.31511
-2.32097
-2.32643
-2.33176
-2.33748
-2.34376
-2.35016
-2.35596
-2.36074
-2.36464
-2.3682
-2.37189
-2.37576
-2.37956
-2.38298
-2.38587
-2.38845
-2.39104
-2.39385
-2.39701
-2.40051
-2.40415
-2.40769
-2.41115
-2.41494
-2.41971
-2.42675
-0.0520589
-0.251827
-0.401015
-0.539806
-0.67532
-0.804187
-0.929246
-1.05133
-1.17037
-1.28644
-1.39766
-1.5047
-1.60638
-1.70156
-1.79003
-1.87231
-1.94788
-2.01692
-2.07986
-2.1363
-2.1873
-2.23361
-2.27515
-2.31254
-2.346
-2.37607
-2.40323
-2.4271
-2.44809
-2.46637
-2.48198
-2.49514
-2.50606
-2.51487
-2.52165
-2.52662
-2.53019
-2.53248
-2.53343
-2.53341
-2.5327
-2.53127
-2.52878
-2.52506
-2.52056
-2.51541
-2.50964
-2.50369
-2.4976
-2.49132
-2.48478
-2.47791
-2.47089
-2.46367
-2.45604
-2.4482
-2.44019
-2.43199
-2.424
-2.41649
-2.40949
-2.40319
-2.39756
-2.39236
-2.38785
-2.38448
-2.38199
-2.37986
-2.37822
-2.37737
-2.37722
-2.37749
-2.3779
-2.37831
-2.37888
-2.37967
-2.38034
-2.38066
-2.3809
-2.3813
-2.38164
-2.38146
-2.38058
-2.37919
-2.37767
-2.37618
-2.37453
-2.37245
-2.37002
-2.36755
-2.36506
-2.36225
-2.35886
-2.355
-2.35096
-2.34696
-2.34299
-2.33889
-2.33452
-2.32994
-2.32543
-2.3212
-2.31718
-2.31322
-2.30932
-2.30571
-2.30256
-2.2997
-2.29678
-2.29352
-2.28998
-2.2865
-2.28347
-2.28109
-2.27927
-2.27778
-2.27656
-2.27583
-2.27588
-2.27677
-2.27827
-2.28005
-2.28197
-2.28413
-2.28664
-2.28943
-2.29226
-2.2949
-2.29738
-2.30007
-2.30343
-2.3077
-2.3127
-2.31791
-2.32281
-2.32732
-2.33183
-2.33684
-2.34244
-2.34806
-2.35292
-2.35673
-2.35983
-2.36288
-2.36628
-2.36989
-2.37329
-2.37625
-2.37879
-2.38125
-2.38397
-2.38701
-2.39034
-2.39394
-2.39785
-2.40201
-2.4064
-2.4112
-2.41701
-2.42513
-0.197278
-0.390242
-0.538729
-0.674708
-0.804674
-0.925697
-1.0406
-1.15135
-1.25916
-1.3631
-1.46333
-1.5593
-1.65057
-1.73676
-1.81753
-1.89244
-1.96173
-2.02563
-2.08402
-2.13707
-2.18523
-2.22872
-2.26833
-2.30425
-2.33664
-2.36571
-2.39226
-2.41586
-2.43641
-2.45455
-2.4703
-2.48357
-2.49465
-2.50359
-2.51039
-2.51555
-2.51959
-2.52244
-2.52402
-2.52462
-2.52424
-2.52277
-2.52043
-2.51721
-2.51311
-2.50836
-2.50312
-2.49765
-2.49203
-2.4861
-2.47999
-2.47372
-2.46706
-2.46
-2.45278
-2.44542
-2.43794
-2.4303
-2.42263
-2.41542
-2.40886
-2.40274
-2.39715
-2.39221
-2.38784
-2.38416
-2.38133
-2.37911
-2.37735
-2.37626
-2.37579
-2.37545
-2.37498
-2.37475
-2.37505
-2.37548
-2.37553
-2.37538
-2.37545
-2.37566
-2.37557
-2.37501
-2.374
-2.3726
-2.37101
-2.36939
-2.36761
-2.36547
-2.36311
-2.36088
-2.35873
-2.35623
-2.35312
-2.34963
-2.34615
-2.34279
-2.33935
-2.33559
-2.33153
-2.32741
-2.32347
-2.31977
-2.31614
-2.3125
-2.30899
-2.30592
-2.30339
-2.30113
-2.29868
-2.29579
-2.29264
-2.28971
-2.28736
-2.28561
-2.28421
-2.28299
-2.28206
-2.28176
-2.28229
-2.28352
-2.28511
-2.28681
-2.28867
-2.29087
-2.29348
-2.29626
-2.29883
-2.30101
-2.30301
-2.30534
-2.30847
-2.31245
-2.3169
-2.32125
-2.32515
-2.32878
-2.33264
-2.33708
-2.34195
-2.34661
-2.35041
-2.35328
-2.35573
-2.35836
-2.36139
-2.36455
-2.36741
-2.36989
-2.3722
-2.37466
-2.37754
-2.38075
-2.38415
-2.38771
-2.39164
-2.39614
-2.40127
-2.40696
-2.41357
-2.42242
-0.372097
-0.545264
-0.682624
-0.809742
-0.930277
-1.04148
-1.14598
-1.24593
-1.34272
-1.43638
-1.52639
-1.61224
-1.69456
-1.77271
-1.84606
-1.91478
-1.97841
-2.03722
-2.09158
-2.1413
-2.18657
-2.22792
-2.26552
-2.29957
-2.3306
-2.35871
-2.38397
-2.40703
-2.42756
-2.44542
-2.46085
-2.4741
-2.4854
-2.49454
-2.50149
-2.50685
-2.51107
-2.51418
-2.51615
-2.51718
-2.51721
-2.51598
-2.51374
-2.51075
-2.50696
-2.50265
-2.49806
-2.49306
-2.48778
-2.48226
-2.47649
-2.47062
-2.46439
-2.45759
-2.45075
-2.44391
-2.43673
-2.42951
-2.42257
-2.41587
-2.40948
-2.40355
-2.39809
-2.39326
-2.38917
-2.38559
-2.38236
-2.37974
-2.37797
-2.37679
-2.37579
-2.37486
-2.37407
-2.37349
-2.3732
-2.37301
-2.3727
-2.37235
-2.3722
-2.3721
-2.37163
-2.37063
-2.36925
-2.36768
-2.36602
-2.3642
-2.36207
-2.35969
-2.35741
-2.3554
-2.35335
-2.35087
-2.34794
-2.34488
-2.34192
-2.33895
-2.33579
-2.33236
-2.32875
-2.32518
-2.32178
-2.31849
-2.31519
-2.3119
-2.30886
-2.30633
-2.30432
-2.30249
-2.3004
-2.29788
-2.29519
-2.29282
-2.29106
-2.28981
-2.28878
-2.28787
-2.28732
-2.28745
-2.28837
-2.28984
-2.29148
-2.29314
-2.29499
-2.29729
-2.30003
-2.30283
-2.3052
-2.307
-2.30861
-2.3107
-2.31368
-2.31741
-2.32128
-2.32476
-2.32775
-2.33068
-2.33406
-2.33801
-2.3421
-2.34572
-2.34846
-2.3505
-2.35242
-2.35464
-2.35719
-2.35976
-2.36204
-2.3641
-2.36626
-2.36876
-2.3717
-2.37494
-2.37829
-2.38175
-2.38555
-2.39005
-2.3955
-2.40178
-2.40901
-2.41842
-0.56183
-0.709694
-0.83035
-0.944034
-1.05317
-1.15322
-1.24732
-1.3369
-1.42275
-1.50672
-1.58733
-1.66483
-1.7388
-1.80905
-1.87585
-1.93868
-1.99711
-2.05147
-2.10178
-2.14815
-2.19074
-2.22976
-2.26527
-2.29792
-2.32735
-2.35412
-2.37841
-2.40055
-2.4206
-2.43823
-2.45342
-2.46651
-2.47765
-2.48673
-2.49395
-2.49974
-2.50414
-2.50729
-2.50951
-2.51077
-2.51093
-2.50999
-2.50802
-2.50525
-2.50179
-2.49787
-2.49383
-2.48938
-2.48443
-2.47935
-2.47398
-2.46823
-2.46228
-2.45602
-2.44956
-2.44314
-2.43643
-2.42956
-2.4232
-2.41728
-2.41125
-2.40534
-2.40017
-2.39571
-2.3916
-2.3879
-2.38478
-2.38221
-2.38015
-2.37857
-2.37726
-2.376
-2.37486
-2.37404
-2.37347
-2.37281
-2.37199
-2.3714
-2.37116
-2.37077
-2.36973
-2.36819
-2.36653
-2.36477
-2.36277
-2.36047
-2.35797
-2.35547
-2.35321
-2.35115
-2.34897
-2.34643
-2.34365
-2.3409
-2.33826
-2.33554
-2.33258
-2.3294
-2.32623
-2.32324
-2.32039
-2.31746
-2.31438
-2.31138
-2.30884
-2.3069
-2.30536
-2.3038
-2.30192
-2.29975
-2.2976
-2.29584
-2.2946
-2.29373
-2.29298
-2.29239
-2.29226
-2.29286
-2.29411
-2.29566
-2.29723
-2.29886
-2.30085
-2.30337
-2.30624
-2.30895
-2.31103
-2.31253
-2.31397
-2.316
-2.31889
-2.32227
-2.32552
-2.32825
-2.33059
-2.33303
-2.33599
-2.33939
-2.34269
-2.34534
-2.34719
-2.34854
-2.34996
-2.35171
-2.3537
-2.35563
-2.35734
-2.35901
-2.36102
-2.36354
-2.36648
-2.36957
-2.37266
-2.37582
-2.37935
-2.38368
-2.38915
-2.39571
-2.40335
-2.41311
-0.75664
-0.876457
-0.979029
-1.07792
-1.17358
-1.26238
-1.34572
-1.42476
-1.50127
-1.57525
-1.64739
-1.71686
-1.78334
-1.84689
-1.90718
-1.96415
-2.0179
-2.06796
-2.11443
-2.15756
-2.19726
-2.23365
-2.2671
-2.298
-2.32612
-2.35154
-2.37487
-2.39604
-2.41529
-2.43257
-2.44759
-2.46039
-2.47126
-2.48031
-2.48759
-2.49345
-2.49808
-2.50148
-2.50382
-2.50507
-2.5052
-2.50449
-2.50284
-2.50027
-2.49724
-2.49384
-2.49016
-2.48618
-2.4817
-2.47696
-2.47199
-2.46646
-2.46059
-2.45479
-2.44891
-2.44276
-2.43652
-2.43043
-2.42457
-2.41898
-2.41351
-2.40816
-2.40325
-2.39894
-2.39498
-2.39127
-2.38809
-2.38564
-2.38366
-2.38177
-2.37996
-2.37847
-2.37731
-2.3763
-2.37533
-2.37431
-2.37335
-2.37264
-2.37204
-2.3711
-2.36957
-2.3677
-2.36572
-2.36356
-2.36108
-2.35832
-2.35548
-2.3528
-2.35043
-2.34823
-2.34584
-2.34314
-2.34038
-2.3378
-2.33534
-2.33273
-2.32986
-2.3269
-2.32416
-2.32171
-2.31932
-2.31665
-2.31376
-2.31106
-2.30899
-2.30758
-2.30641
-2.30506
-2.30336
-2.30154
-2.29993
-2.29877
-2.29802
-2.29744
-2.2969
-2.29661
-2.29694
-2.298
-2.2995
-2.30099
-2.30239
-2.30404
-2.3063
-2.30915
-2.31211
-2.3146
-2.31636
-2.31766
-2.31912
-2.32123
-2.324
-2.32698
-2.32964
-2.33181
-2.33374
-2.33587
-2.33842
-2.34121
-2.34374
-2.34557
-2.3467
-2.34748
-2.34841
-2.34969
-2.3511
-2.35239
-2.35351
-2.35472
-2.35648
-2.35897
-2.36188
-2.36476
-2.36737
-2.36993
-2.37294
-2.37698
-2.38238
-2.38904
-2.39687
-2.40671
-0.948481
-1.04214
-1.12525
-1.20878
-1.29179
-1.36842
-1.44141
-1.51108
-1.57797
-1.64317
-1.70671
-1.76856
-1.8284
-1.88552
-1.93991
-1.99176
-2.04071
-2.08657
-2.12961
-2.16953
-2.20625
-2.23991
-2.27112
-2.29981
-2.32656
-2.35089
-2.37304
-2.39338
-2.41189
-2.42849
-2.44315
-2.4558
-2.46645
-2.47537
-2.48264
-2.48837
-2.49303
-2.49659
-2.49894
-2.50019
-2.50032
-2.49963
-2.49823
-2.49596
-2.49329
-2.49049
-2.48722
-2.48353
-2.47957
-2.47516
-2.47031
-2.46514
-2.45962
-2.45394
-2.44844
-2.44289
-2.43715
-2.43164
-2.42655
-2.42143
-2.41621
-2.4114
-2.40718
-2.40314
-2.39907
-2.39539
-2.39247
-2.39013
-2.38796
-2.38585
-2.38399
-2.38248
-2.38116
-2.37987
-2.37864
-2.3775
-2.37646
-2.37555
-2.37457
-2.37311
-2.37109
-2.36885
-2.36656
-2.36399
-2.36099
-2.35775
-2.35461
-2.35178
-2.34925
-2.34675
-2.34404
-2.34118
-2.33845
-2.33592
-2.3334
-2.33069
-2.32786
-2.32517
-2.32283
-2.32074
-2.31858
-2.31606
-2.31337
-2.31101
-2.30938
-2.30836
-2.30744
-2.30624
-2.30479
-2.30338
-2.30231
-2.30165
-2.30123
-2.30087
-2.30059
-2.30068
-2.30146
-2.30287
-2.30447
-2.30587
-2.30721
-2.30899
-2.31156
-2.31468
-2.31766
-2.31994
-2.32148
-2.32274
-2.3243
-2.3265
-2.32914
-2.33175
-2.33393
-2.33566
-2.33731
-2.33921
-2.34142
-2.34366
-2.34547
-2.34658
-2.34712
-2.34746
-2.348
-2.34884
-2.34968
-2.35028
-2.35071
-2.35137
-2.35281
-2.35516
-2.35795
-2.36049
-2.36249
-2.36426
-2.36658
-2.37022
-2.37547
-2.38208
-2.38983
-2.39939
-1.13355
-1.20262
-1.26759
-1.3361
-1.40581
-1.47175
-1.53442
-1.5946
-1.65325
-1.71013
-1.76584
-1.82052
-1.87354
-1.92483
-1.97404
-2.02086
-2.06535
-2.10747
-2.14691
-2.18359
-2.21764
-2.24893
-2.27763
-2.30412
-2.32894
-2.35219
-2.37328
-2.39252
-2.41032
-2.42642
-2.44052
-2.45276
-2.4633
-2.47215
-2.47927
-2.48482
-2.48934
-2.49286
-2.49507
-2.49622
-2.49648
-2.49578
-2.49443
-2.49254
-2.49023
-2.48781
-2.48508
-2.48174
-2.47804
-2.474
-2.46928
-2.46418
-2.45911
-2.45386
-2.44843
-2.44324
-2.43832
-2.43351
-2.42881
-2.4242
-2.41965
-2.41534
-2.41142
-2.40763
-2.40383
-2.40035
-2.39754
-2.39522
-2.39298
-2.39077
-2.3889
-2.38746
-2.3861
-2.38459
-2.38312
-2.38188
-2.38083
-2.37976
-2.37834
-2.37636
-2.37398
-2.37153
-2.36893
-2.36587
-2.36235
-2.35877
-2.35548
-2.35251
-2.3497
-2.34682
-2.3438
-2.34084
-2.33809
-2.33546
-2.33269
-2.32976
-2.32693
-2.32446
-2.3224
-2.32047
-2.31832
-2.31582
-2.3133
-2.31131
-2.31007
-2.30929
-2.30846
-2.30738
-2.30625
-2.30536
-2.3048
-2.30447
-2.30421
-2.30403
-2.30409
-2.30466
-2.30585
-2.30745
-2.30905
-2.31044
-2.3119
-2.31395
-2.3168
-2.32006
-2.32299
-2.32513
-2.32658
-2.32788
-2.32958
-2.33185
-2.33437
-2.33668
-2.33846
-2.33984
-2.34124
-2.34296
-2.34491
-2.34667
-2.34785
-2.34831
-2.34837
-2.34845
-2.34876
-2.34922
-2.34944
-2.34922
-2.34886
-2.34898
-2.35011
-2.35223
-2.35469
-2.35671
-2.35797
-2.35895
-2.3606
-2.36379
-2.36877
-2.37509
-2.38242
-2.39133
-1.30868
-1.35622
-1.40438
-1.45866
-1.51614
-1.5716
-1.62434
-1.67604
-1.72657
-1.77597
-1.82468
-1.87233
-1.91912
-1.9649
-2.00898
-2.05125
-2.09175
-2.13002
-2.16577
-2.19944
-2.23081
-2.25975
-2.28617
-2.31095
-2.33387
-2.35533
-2.37533
-2.3937
-2.41066
-2.42614
-2.43974
-2.45159
-2.46194
-2.47055
-2.4774
-2.48286
-2.48717
-2.49038
-2.49239
-2.49339
-2.49362
-2.493
-2.49167
-2.49007
-2.48819
-2.48597
-2.48361
-2.48085
-2.47734
-2.47328
-2.46885
-2.46404
-2.459
-2.45395
-2.44901
-2.44427
-2.43976
-2.4355
-2.43139
-2.42731
-2.4233
-2.4195
-2.41588
-2.41223
-2.40863
-2.40546
-2.40287
-2.40053
-2.39818
-2.39598
-2.39427
-2.39291
-2.39141
-2.38971
-2.38818
-2.38699
-2.38589
-2.38453
-2.38271
-2.38045
-2.37795
-2.37534
-2.37241
-2.3689
-2.36506
-2.36134
-2.35797
-2.35483
-2.35172
-2.34852
-2.34529
-2.34223
-2.3394
-2.33653
-2.3334
-2.33018
-2.32731
-2.32497
-2.32299
-2.32098
-2.31866
-2.31609
-2.31373
-2.31205
-2.31108
-2.31038
-2.30957
-2.30864
-2.30789
-2.3075
-2.30733
-2.30717
-2.307
-2.307
-2.30745
-2.30848
-2.31002
-2.31174
-2.31334
-2.31478
-2.31645
-2.31882
-2.32194
-2.32528
-2.32812
-2.33012
-2.33154
-2.33296
-2.33481
-2.33712
-2.3395
-2.34148
-2.34292
-2.34403
-2.34528
-2.34689
-2.3486
-2.34989
-2.35045
-2.35037
-2.35014
-2.35015
-2.35037
-2.35043
-2.34992
-2.34881
-2.34768
-2.34735
-2.34825
-2.3501
-2.35208
-2.35339
-2.35386
-2.35413
-2.35521
-2.35794
-2.36244
-2.36818
-2.37477
-2.38268
-1.47132
-1.50074
-1.53444
-1.57552
-1.62176
-1.66726
-1.71149
-1.7549
-1.79781
-1.84047
-1.88242
-1.92394
-1.96503
-2.00539
-2.04475
-2.08281
-2.11939
-2.15405
-2.18643
-2.2169
-2.24552
-2.27214
-2.29667
-2.31945
-2.34091
-2.36081
-2.37938
-2.39679
-2.41298
-2.42778
-2.44091
-2.45245
-2.4625
-2.47074
-2.47722
-2.48252
-2.48662
-2.4894
-2.49116
-2.49203
-2.49205
-2.49144
-2.49026
-2.48873
-2.48717
-2.4854
-2.4832
-2.48062
-2.47748
-2.47357
-2.4691
-2.46444
-2.45961
-2.45465
-2.44997
-2.44577
-2.44176
-2.43778
-2.43403
-2.43054
-2.42713
-2.42366
-2.42017
-2.4167
-2.4134
-2.4105
-2.40797
-2.40559
-2.40331
-2.40131
-2.39973
-2.39829
-2.39662
-2.39486
-2.39342
-2.39229
-2.39105
-2.38942
-2.38739
-2.38508
-2.3826
-2.3799
-2.37671
-2.37294
-2.36898
-2.36529
-2.36189
-2.35856
-2.35519
-2.3518
-2.3485
-2.34538
-2.34234
-2.3391
-2.33556
-2.33209
-2.32914
-2.32676
-2.32459
-2.32226
-2.31968
-2.31705
-2.31481
-2.31326
-2.31233
-2.31162
-2.31084
-2.31012
-2.30973
-2.3097
-2.30976
-2.30968
-2.30958
-2.30978
-2.31058
-2.31203
-2.31388
-2.31573
-2.31735
-2.31886
-2.32076
-2.32346
-2.32685
-2.33024
-2.33294
-2.3348
-2.33626
-2.3379
-2.33997
-2.34228
-2.34438
-2.34597
-2.3471
-2.34813
-2.34939
-2.35094
-2.35234
-2.35309
-2.35306
-2.35259
-2.35224
-2.35229
-2.35241
-2.35199
-2.35069
-2.34873
-2.34698
-2.34632
-2.34703
-2.34855
-2.34994
-2.35049
-2.35026
-2.34998
-2.35062
-2.35283
-2.35663
-2.36148
-2.36704
-2.37375
-1.62109
-1.63521
-1.65634
-1.6861
-1.72194
-1.75836
-1.79488
-1.83065
-1.86681
-1.90293
-1.93894
-1.97497
-2.01069
-2.04617
-2.08131
-2.11535
-2.14813
-2.17944
-2.20883
-2.23625
-2.26217
-2.28637
-2.30915
-2.33003
-2.34971
-2.3683
-2.38567
-2.40204
-2.41739
-2.43149
-2.44427
-2.45552
-2.46508
-2.47293
-2.47916
-2.4841
-2.48781
-2.49022
-2.49172
-2.49251
-2.49229
-2.4914
-2.4904
-2.48912
-2.48757
-2.48601
-2.48422
-2.48172
-2.47852
-2.47477
-2.47049
-2.46579
-2.4609
-2.45613
-2.45178
-2.44789
-2.44414
-2.44047
-2.43713
-2.43409
-2.43099
-2.42769
-2.42438
-2.42118
-2.41816
-2.41537
-2.41283
-2.4105
-2.40841
-2.40662
-2.40509
-2.4035
-2.40171
-2.39998
-2.39865
-2.39752
-2.39611
-2.39431
-2.39227
-2.3901
-2.38774
-2.38499
-2.38164
-2.3778
-2.37395
-2.37039
-2.36697
-2.36345
-2.3599
-2.35649
-2.35324
-2.35004
-2.34668
-2.34299
-2.33908
-2.3354
-2.33231
-2.32968
-2.32709
-2.3243
-2.32141
-2.31871
-2.31648
-2.31489
-2.31382
-2.31299
-2.31224
-2.31175
-2.31166
-2.31185
-2.31198
-2.31187
-2.3118
-2.31222
-2.3134
-2.31522
-2.31733
-2.31929
-2.32096
-2.32261
-2.3248
-2.32786
-2.33146
-2.33483
-2.33737
-2.33916
-2.34081
-2.3428
-2.34511
-2.34733
-2.34907
-2.35027
-2.35124
-2.35236
-2.35376
-2.3552
-2.35619
-2.35635
-2.35583
-2.35514
-2.35478
-2.35481
-2.35467
-2.35366
-2.35157
-2.34895
-2.3468
-2.34593
-2.34641
-2.34749
-2.34821
-2.34809
-2.34732
-2.34669
-2.347
-2.34864
-2.35154
-2.35527
-2.35967
-2.36508
-1.7584
-1.75947
-1.76998
-1.79021
-1.81658
-1.84499
-1.87398
-1.9034
-1.93313
-1.96327
-1.99397
-2.02475
-2.05576
-2.08705
-2.11802
-2.14815
-2.1775
-2.20581
-2.23238
-2.25712
-2.28056
-2.30261
-2.32323
-2.3425
-2.36044
-2.3776
-2.39392
-2.40926
-2.4238
-2.43737
-2.4497
-2.46049
-2.46959
-2.47716
-2.48315
-2.48753
-2.49079
-2.4931
-2.4943
-2.49466
-2.49435
-2.49342
-2.49223
-2.491
-2.48969
-2.48823
-2.48648
-2.48409
-2.48093
-2.47713
-2.47281
-2.46809
-2.46324
-2.45859
-2.45443
-2.45067
-2.44708
-2.4437
-2.44073
-2.43796
-2.43497
-2.43175
-2.42863
-2.4257
-2.42285
-2.42008
-2.41755
-2.41537
-2.41351
-2.41185
-2.41023
-2.4085
-2.40667
-2.40502
-2.40373
-2.40249
-2.40092
-2.39911
-2.39726
-2.39533
-2.39308
-2.3903
-2.38694
-2.38324
-2.37961
-2.37619
-2.37271
-2.36907
-2.3655
-2.3622
-2.35902
-2.35566
-2.35195
-2.34786
-2.34365
-2.33976
-2.33643
-2.33342
-2.33032
-2.32704
-2.32382
-2.32098
-2.31867
-2.3169
-2.31556
-2.3145
-2.31374
-2.31345
-2.31362
-2.31393
-2.31396
-2.31371
-2.31367
-2.31438
-2.31599
-2.31815
-2.32038
-2.32235
-2.32411
-2.32604
-2.32863
-2.33202
-2.33573
-2.339
-2.34143
-2.34334
-2.34534
-2.34772
-2.35017
-2.35219
-2.35356
-2.35452
-2.35554
-2.35691
-2.35845
-2.35967
-2.36015
-2.35976
-2.35889
-2.35815
-2.35783
-2.35771
-2.35713
-2.35546
-2.35273
-2.34967
-2.3473
-2.34626
-2.34641
-2.34694
-2.34703
-2.34637
-2.34527
-2.34445
-2.34451
-2.34557
-2.34746
-2.34998
-2.3532
-2.35734
-1.88343
-1.87422
-1.87521
-1.88687
-1.90579
-1.92679
-1.94931
-1.97271
-1.99665
-2.02161
-2.0472
-2.07332
-2.10002
-2.12722
-2.15432
-2.18096
-2.20701
-2.23239
-2.25644
-2.27899
-2.30013
-2.32024
-2.33874
-2.35625
-2.37275
-2.38852
-2.40373
-2.41817
-2.432
-2.44508
-2.45687
-2.46714
-2.47586
-2.48304
-2.4887
-2.49277
-2.49559
-2.49761
-2.49871
-2.49873
-2.49803
-2.49706
-2.49592
-2.49458
-2.49324
-2.49189
-2.49017
-2.48775
-2.48456
-2.48068
-2.47622
-2.47144
-2.46664
-2.4621
-2.458
-2.45427
-2.45079
-2.44763
-2.4449
-2.44225
-2.43928
-2.43613
-2.43319
-2.43043
-2.42761
-2.42481
-2.42235
-2.42038
-2.41869
-2.41699
-2.4152
-2.41334
-2.41154
-2.40996
-2.40857
-2.40713
-2.40546
-2.40378
-2.40221
-2.40049
-2.3983
-2.39554
-2.39232
-2.38887
-2.38547
-2.38211
-2.37859
-2.37494
-2.37148
-2.36833
-2.36518
-2.36163
-2.35758
-2.35317
-2.34874
-2.34466
-2.34104
-2.33758
-2.33395
-2.33023
-2.32676
-2.32377
-2.32128
-2.3192
-2.31748
-2.31617
-2.31542
-2.31532
-2.31567
-2.31596
-2.31578
-2.31537
-2.31542
-2.31652
-2.31858
-2.32098
-2.3232
-2.32513
-2.32703
-2.32935
-2.33235
-2.33595
-2.33961
-2.34277
-2.34527
-2.34752
-2.34998
-2.35265
-2.35505
-2.35673
-2.3578
-2.35875
-2.36003
-2.36168
-2.36326
-2.36417
-2.36412
-2.3633
-2.36226
-2.36155
-2.36124
-2.36085
-2.35974
-2.35749
-2.35434
-2.3511
-2.34867
-2.34743
-2.34711
-2.34699
-2.34648
-2.34546
-2.34428
-2.34345
-2.34335
-2.34383
-2.34469
-2.34601
-2.34811
-2.35107
-1.99711
-1.97898
-1.97222
-1.97671
-1.98872
-2.0036
-2.02036
-2.0383
-2.05745
-2.0776
-2.09864
-2.12064
-2.14334
-2.16669
-2.19029
-2.21363
-2.2366
-2.25921
-2.28093
-2.30137
-2.32055
-2.33862
-2.35545
-2.37111
-2.38626
-2.40088
-2.41491
-2.42849
-2.44177
-2.45435
-2.46545
-2.47508
-2.4836
-2.49051
-2.49552
-2.49925
-2.50212
-2.50388
-2.50452
-2.50431
-2.5035
-2.50234
-2.50106
-2.49968
-2.49832
-2.49695
-2.49519
-2.49269
-2.48941
-2.48545
-2.48088
-2.47602
-2.47125
-2.46677
-2.46267
-2.45897
-2.45559
-2.45259
-2.44994
-2.44728
-2.4443
-2.44125
-2.43844
-2.4357
-2.4328
-2.42996
-2.42763
-2.42583
-2.42415
-2.42226
-2.42026
-2.41833
-2.41654
-2.41487
-2.41327
-2.41159
-2.4099
-2.4084
-2.40703
-2.40541
-2.40323
-2.40054
-2.39752
-2.39435
-2.3911
-2.38774
-2.38419
-2.38061
-2.37732
-2.37432
-2.37114
-2.36735
-2.36298
-2.35834
-2.35379
-2.34959
-2.34567
-2.34174
-2.33765
-2.33363
-2.33005
-2.32696
-2.32419
-2.32165
-2.31951
-2.31805
-2.31742
-2.31753
-2.31792
-2.31803
-2.31763
-2.31717
-2.31747
-2.31899
-2.32136
-2.32384
-2.32597
-2.3279
-2.33006
-2.3328
-2.3361
-2.3397
-2.34318
-2.34624
-2.34898
-2.35171
-2.35462
-2.35743
-2.3596
-2.36092
-2.36181
-2.36292
-2.36455
-2.36643
-2.36791
-2.36843
-2.36796
-2.36692
-2.36587
-2.3652
-2.36478
-2.36406
-2.36245
-2.35981
-2.3565
-2.35331
-2.3509
-2.34944
-2.34857
-2.34774
-2.34665
-2.34541
-2.34433
-2.34368
-2.34352
-2.34353
-2.34346
-2.34367
-2.3447
-2.34657
-2.09892
-2.07464
-2.06186
-2.05983
-2.06576
-2.07555
-2.08723
-2.10056
-2.11515
-2.13096
-2.1482
-2.16634
-2.18529
-2.20519
-2.22575
-2.24615
-2.26631
-2.28625
-2.30584
-2.32429
-2.3416
-2.35752
-2.37277
-2.38714
-2.40087
-2.41418
-2.42731
-2.44035
-2.45286
-2.46452
-2.47515
-2.48449
-2.49242
-2.4988
-2.50358
-2.50718
-2.50986
-2.51137
-2.5117
-2.51131
-2.51038
-2.50901
-2.50755
-2.50616
-2.50482
-2.50336
-2.50148
-2.4989
-2.49554
-2.49145
-2.48682
-2.48199
-2.47724
-2.47273
-2.46861
-2.46499
-2.46178
-2.45886
-2.45615
-2.45342
-2.45049
-2.44754
-2.44474
-2.44187
-2.43884
-2.436
-2.43377
-2.43198
-2.43013
-2.42798
-2.42579
-2.4238
-2.42192
-2.42002
-2.41808
-2.41619
-2.4145
-2.41311
-2.41179
-2.41011
-2.40787
-2.40524
-2.40244
-2.39947
-2.39626
-2.3928
-2.3892
-2.38574
-2.38266
-2.37975
-2.37641
-2.37231
-2.36768
-2.36294
-2.35838
-2.35407
-2.34985
-2.34552
-2.34113
-2.33706
-2.33352
-2.33034
-2.32718
-2.32413
-2.32166
-2.32022
-2.31985
-2.32012
-2.32042
-2.32028
-2.31976
-2.31947
-2.32015
-2.32199
-2.32444
-2.32679
-2.32881
-2.33084
-2.33334
-2.3364
-2.3398
-2.3432
-2.34644
-2.34952
-2.3526
-2.35582
-2.35902
-2.36176
-2.36362
-2.36468
-2.36557
-2.36695
-2.3689
-2.37085
-2.37209
-2.37227
-2.37156
-2.37053
-2.36961
-2.36895
-2.3683
-2.36716
-2.36519
-2.36241
-2.35921
-2.35621
-2.35383
-2.3521
-2.35069
-2.34922
-2.34768
-2.34636
-2.34552
-2.34513
-2.34498
-2.34461
-2.34378
-2.34301
-2.34307
-2.34392
-2.18977
-2.16172
-2.14408
-2.1366
-2.13771
-2.14268
-2.15023
-2.15942
-2.16997
-2.18215
-2.19564
-2.20999
-2.22555
-2.24241
-2.26006
-2.27789
-2.29577
-2.31354
-2.33089
-2.34733
-2.36274
-2.3772
-2.39067
-2.40359
-2.4162
-2.42859
-2.44082
-2.453
-2.46482
-2.47571
-2.48564
-2.49455
-2.50201
-2.50787
-2.51247
-2.51606
-2.51853
-2.51977
-2.51995
-2.51943
-2.51833
-2.51681
-2.51525
-2.51382
-2.51244
-2.51094
-2.509
-2.5063
-2.50281
-2.49866
-2.49406
-2.48929
-2.48454
-2.47998
-2.47592
-2.47246
-2.46937
-2.46645
-2.46367
-2.46095
-2.45812
-2.45521
-2.45226
-2.44919
-2.44605
-2.44324
-2.441
-2.43903
-2.43686
-2.43445
-2.43213
-2.43004
-2.42795
-2.42565
-2.42332
-2.42122
-2.41952
-2.41809
-2.41659
-2.41467
-2.4123
-2.40975
-2.4071
-2.40415
-2.40079
-2.39713
-2.3935
-2.39019
-2.38725
-2.38424
-2.38058
-2.37615
-2.37137
-2.36668
-2.36216
-2.35768
-2.35314
-2.34858
-2.34422
-2.34034
-2.33692
-2.33358
-2.33001
-2.32657
-2.324
-2.32279
-2.32271
-2.32304
-2.32315
-2.32282
-2.32237
-2.32243
-2.32349
-2.32546
-2.32776
-2.32987
-2.33181
-2.33402
-2.3368
-2.33998
-2.3432
-2.34628
-2.34934
-2.35258
-2.35607
-2.35965
-2.36293
-2.36543
-2.36697
-2.36793
-2.36899
-2.37067
-2.37282
-2.37468
-2.37564
-2.37557
-2.37487
-2.37406
-2.37338
-2.3727
-2.37171
-2.37014
-2.36793
-2.36525
-2.36241
-2.35973
-2.3574
-2.35538
-2.35347
-2.35151
-2.34972
-2.3485
-2.34798
-2.34788
-2.34772
-2.34704
-2.3456
-2.34401
-2.34318
-2.34311
-2.27149
-2.24012
-2.21931
-2.208
-2.20428
-2.20535
-2.20929
-2.21495
-2.22213
-2.23087
-2.24099
-2.25224
-2.26453
-2.27827
-2.29324
-2.30888
-2.32463
-2.3404
-2.35575
-2.37047
-2.3839
-2.39682
-2.40904
-2.4207
-2.43203
-2.44355
-2.45519
-2.46642
-2.47716
-2.48742
-2.49685
-2.50507
-2.5119
-2.51751
-2.5221
-2.52559
-2.52782
-2.52885
-2.52899
-2.52843
-2.52715
-2.52547
-2.52388
-2.52248
-2.52109
-2.51952
-2.51748
-2.5147
-2.51116
-2.50702
-2.50248
-2.49772
-2.49296
-2.48848
-2.48459
-2.48129
-2.47825
-2.4753
-2.47257
-2.46999
-2.46726
-2.46426
-2.46108
-2.45781
-2.45463
-2.45182
-2.44941
-2.44707
-2.44454
-2.44194
-2.43954
-2.43727
-2.43478
-2.43199
-2.42927
-2.427
-2.42516
-2.42344
-2.42149
-2.4192
-2.4167
-2.41419
-2.4115
-2.40831
-2.4046
-2.40072
-2.3971
-2.39389
-2.39087
-2.38751
-2.38341
-2.37873
-2.37397
-2.36939
-2.36482
-2.36009
-2.35534
-2.35084
-2.34682
-2.34328
-2.33994
-2.33636
-2.33249
-2.32894
-2.32658
-2.32573
-2.32589
-2.32619
-2.32613
-2.32579
-2.32561
-2.32607
-2.32734
-2.3292
-2.33119
-2.33307
-2.33505
-2.3375
-2.34042
-2.34345
-2.34626
-2.34895
-2.35191
-2.35541
-2.3593
-2.3631
-2.36626
-2.36844
-2.36976
-2.37076
-2.37208
-2.37399
-2.37615
-2.37782
-2.37854
-2.37843
-2.37798
-2.37757
-2.37715
-2.37641
-2.37506
-2.37311
-2.37079
-2.36838
-2.36605
-2.36381
-2.36161
-2.3594
-2.35715
-2.35494
-2.35312
-2.35211
-2.35192
-2.35201
-2.35179
-2.35079
-2.34885
-2.34659
-2.345
-2.34409
-2.34498
-2.3112
-2.28825
-2.27367
-2.26632
-2.26401
-2.26464
-2.26734
-2.27148
-2.27715
-2.28443
-2.29288
-2.3024
-2.31343
-2.32585
-2.33917
-2.35299
-2.36693
-2.38031
-2.39308
-2.4053
-2.41672
-2.42752
-2.438
-2.4486
-2.45936
-2.46991
-2.48011
-2.4901
-2.49974
-2.50841
-2.51579
-2.52223
-2.52788
-2.5324
-2.53557
-2.53761
-2.53869
-2.53885
-2.5381
-2.53663
-2.53493
-2.53344
-2.53209
-2.53063
-2.52895
-2.52684
-2.52404
-2.52052
-2.51641
-2.51186
-2.50709
-2.5024
-2.49812
-2.49446
-2.49129
-2.48826
-2.48539
-2.48287
-2.48051
-2.4778
-2.47461
-2.47122
-2.46787
-2.46469
-2.46172
-2.45893
-2.45616
-2.45337
-2.45068
-2.44814
-2.44548
-2.44245
-2.43919
-2.43617
-2.43366
-2.43142
-2.42909
-2.42653
-2.42387
-2.42126
-2.41862
-2.41559
-2.41189
-2.40774
-2.40371
-2.4001
-2.39677
-2.39335
-2.38946
-2.38498
-2.38021
-2.37552
-2.37094