/*--------------------------------*- C++ -*----------------------------------*\
  =========                 |
  \\      /  F ield         | OpenFOAM: The Open Source CFD Toolbox
   \\    /   O peration     | Website:  https://openfoam.org
    \\  /    A nd           | Version:  7
     \\/     M anipulation  |
\*---------------------------------------------------------------------------*/
FoamFile
{
    version     2.0;
    format      ascii;
    class       surfaceScalarField;
    location    "0.0125";
    object      phi;
}
// * * * * * * * * * * * * * * * * * * * * * * * * * * * * * * * * * * * * * //

dimensions      [0 3 -1 0 0 0 0];

internalField   nonuniform List<scalar> 
50880
(
-6.29962e-11
6.28423e-11
8.46145e-09
-8.52445e-09
2.97018e-08
-2.12404e-08
5.6019e-08
-2.63172e-08
8.17939e-08
-2.57749e-08
1.04395e-07
-2.26015e-08
1.2266e-07
-1.82641e-08
1.36486e-07
-1.38262e-08
1.46138e-07
-9.65213e-09
1.52151e-07
-6.01337e-09
1.55048e-07
-2.89727e-09
1.55409e-07
-3.61005e-10
1.53743e-07
1.66605e-09
1.50517e-07
3.2263e-09
1.46085e-07
4.43235e-09
1.40814e-07
5.27055e-09
1.34988e-07
5.82577e-09
1.2886e-07
6.12837e-09
1.2259e-07
6.27031e-09
1.16329e-07
6.26054e-09
1.10215e-07
6.11448e-09
1.04288e-07
5.92709e-09
9.86099e-08
5.67774e-09
9.31991e-08
5.41074e-09
8.80519e-08
5.14721e-09
8.31717e-08
4.88028e-09
7.85607e-08
4.61093e-09
7.42062e-08
4.35452e-09
7.00781e-08
4.12815e-09
6.61487e-08
3.92941e-09
6.24045e-08
3.74415e-09
5.88759e-08
3.52861e-09
5.55288e-08
3.34704e-09
5.23228e-08
3.20609e-09
4.92633e-08
3.0595e-09
4.63305e-08
2.93271e-09
4.34858e-08
2.84474e-09
4.07325e-08
2.75333e-09
3.80853e-08
2.64716e-09
3.55205e-08
2.56486e-09
3.30316e-08
2.48893e-09
3.06308e-08
2.40078e-09
2.83091e-08
2.32176e-09
2.60729e-08
2.23625e-09
2.39393e-08
2.13356e-09
2.19232e-08
2.01608e-09
2.00192e-08
1.90395e-09
1.82076e-08
1.81163e-09
1.65022e-08
1.70543e-09
1.49137e-08
1.58853e-09
1.34346e-08
1.47905e-09
1.20715e-08
1.36303e-09
1.08297e-08
1.24179e-09
9.7087e-09
1.12103e-09
8.69313e-09
1.01556e-09
7.76998e-09
9.23154e-10
6.96036e-09
8.09635e-10
6.28028e-09
6.80084e-10
5.7189e-09
5.61371e-10
5.26932e-09
4.49583e-10
4.93209e-09
3.37229e-10
4.70336e-09
2.28714e-10
4.57324e-09
1.30111e-10
4.53134e-09
4.19013e-11
4.57074e-09
-3.94026e-11
4.67818e-09
-1.07436e-10
4.82859e-09
-1.50411e-10
4.99275e-09
-1.64161e-10
5.14597e-09
-1.53235e-10
5.27325e-09
-1.27288e-10
5.35725e-09
-8.40059e-11
5.36595e-09
-8.70605e-12
5.2736e-09
9.23675e-11
5.07777e-09
1.95835e-10
4.78242e-09
2.95357e-10
4.39548e-09
3.86939e-10
3.9421e-09
4.53372e-10
3.44411e-09
4.97962e-10
2.90397e-09
5.40133e-10
2.33427e-09
5.69695e-10
1.76586e-09
5.68406e-10
1.20977e-09
5.56088e-10
6.56679e-10
5.53094e-10
1.1871e-10
5.37981e-10
-3.76327e-10
4.95038e-10
-8.27782e-10
4.51446e-10
-1.25473e-09
4.26945e-10
-1.65613e-09
4.01394e-10
-2.01623e-09
3.6009e-10
-2.33549e-09
3.19255e-10
-2.62371e-09
2.88215e-10
-2.87634e-09
2.52631e-10
-3.0836e-09
2.07254e-10
-3.2497e-09
1.6609e-10
-3.38246e-09
1.32771e-10
-3.47692e-09
9.4472e-11
-3.52748e-09
5.05601e-11
-3.54615e-09
1.86727e-11
-3.55303e-09
6.86369e-12
-3.55556e-09
2.51642e-12
-3.54949e-09
-6.07429e-12
-3.53354e-09
-1.59529e-11
-3.51081e-09
-2.27267e-11
-3.47897e-09
-3.18234e-11
-3.42954e-09
-4.94409e-11
-3.356e-09
-7.35469e-11
-3.25515e-09
-1.0085e-10
-3.12042e-09
-1.34745e-10
-2.94064e-09
-1.79773e-10
-2.7069e-09
-2.33745e-10
-2.41514e-09
-2.91765e-10
-2.06065e-09
-3.54486e-10
-1.63513e-09
-4.25522e-10
-1.13364e-09
-5.01483e-10
-5.62955e-10
-5.70691e-10
6.05147e-11
-6.2347e-10
7.20598e-10
-6.60085e-10
1.40636e-09
-6.85763e-10
2.10743e-09
-7.0106e-10
2.80815e-09
-7.00715e-10
3.48815e-09
-6.80001e-10
4.12809e-09
-6.39938e-10
4.71479e-09
-5.86701e-10
5.24364e-09
-5.28844e-10
5.71794e-09
-4.743e-10
6.14469e-09
-4.2674e-10
6.52743e-09
-3.8274e-10
6.8645e-09
-3.37082e-10
7.15359e-09
-2.89089e-10
7.39775e-09
-2.44165e-10
7.60347e-09
-2.05736e-10
7.77126e-09
-1.67784e-10
7.89026e-09
-1.19001e-10
7.94368e-09
-5.34203e-11
7.91982e-09
2.38687e-11
7.81837e-09
1.01452e-10
7.64485e-09
1.73511e-10
7.40084e-09
2.43998e-10
7.08246e-09
3.18377e-10
6.68532e-09
3.97153e-10
6.21236e-09
4.72974e-10
5.68038e-09
5.31984e-10
5.11285e-09
5.67541e-10
4.52887e-09
5.83973e-10
3.94291e-09
5.85958e-10
3.3622e-09
5.80708e-10
2.78845e-09
5.73746e-10
2.22602e-09
5.62436e-10
1.67586e-09
5.5016e-10
1.13747e-09
5.38385e-10
6.15308e-10
5.22163e-10
1.0944e-10
5.05869e-10
-3.73375e-10
4.82814e-10
-8.13311e-10
4.39932e-10
-1.18483e-09
3.7152e-10
-1.44017e-09
2.55343e-10
-1.50157e-09
6.13905e-11
-1.22758e-09
-2.73991e-10
-5.22758e-10
-7.04818e-10
-5.22758e-10
-8.70236e-09
8.76521e-09
-8.81096e-09
-8.41585e-09
9.6628e-09
-3.97141e-08
3.85407e-08
-5.51951e-08
7.02775e-08
-5.75116e-08
1.00405e-07
-5.27293e-08
1.26762e-07
-4.4621e-08
1.48231e-07
-3.52952e-08
1.64743e-07
-2.61639e-08
1.7645e-07
-1.77209e-08
1.83982e-07
-1.0429e-08
1.87816e-07
-4.19433e-09
1.88619e-07
8.62771e-10
1.86899e-07
4.94576e-09
1.8327e-07
8.06202e-09
1.78143e-07
1.03969e-08
1.71939e-07
1.20298e-08
1.64985e-07
1.30825e-08
1.57582e-07
1.36735e-08
1.49945e-07
1.38975e-08
1.42223e-07
1.38367e-08
1.34592e-07
1.35576e-08
1.27116e-07
1.31537e-08
1.19846e-07
1.26813e-08
1.12844e-07
1.21492e-08
1.06134e-07
1.15899e-08
9.96788e-08
1.10664e-08
9.3518e-08
1.05153e-08
8.76441e-08
1.00021e-08
8.20288e-08
9.5448e-09
7.66694e-08
9.10348e-09
7.15392e-08
8.65883e-09
6.66228e-08
8.26345e-09
6.19205e-08
7.90834e-09
5.74074e-08
7.57261e-09
5.30485e-08
7.29157e-09
4.88422e-08
7.05107e-09
4.47797e-08
6.81582e-09
4.08376e-08
6.58924e-09
3.70102e-08
6.3922e-09
3.32966e-08
6.20247e-09
2.97049e-08
5.99252e-09
2.6243e-08
5.78362e-09
2.29175e-08
5.56182e-09
1.97388e-08
5.3123e-09
1.6701e-08
5.05386e-09
1.38113e-08
4.79365e-09
1.10824e-08
4.54047e-09
8.50639e-09
4.28149e-09
6.08923e-09
4.0057e-09
3.8426e-09
3.72569e-09
1.76977e-09
3.4359e-09
-1.32156e-10
3.14372e-09
-1.87492e-09
2.86378e-09
-3.45292e-09
2.59356e-09
-4.858e-09
2.32824e-09
-6.10267e-09
2.05429e-09
-7.1909e-09
1.76831e-09
-8.11476e-09
1.48525e-09
-8.87633e-09
1.21116e-09
-9.48294e-09
9.43844e-10
-9.93988e-09
6.85663e-10
-1.02573e-08
4.47511e-10
-1.04518e-08
2.36416e-10
-1.05397e-08
4.85243e-11
-1.05404e-08
-1.06751e-10
-1.04805e-08
-2.1027e-10
-1.03852e-08
-2.59454e-10
-1.02828e-08
-2.5565e-10
-1.0212e-08
-1.9805e-10
-1.01999e-08
-9.61481e-11
-1.02583e-08
4.97513e-11
-1.04121e-08
2.46123e-10
-1.06815e-08
4.65176e-10
-1.105e-08
6.63916e-10
-1.14995e-08
8.36396e-10
-1.2038e-08
9.91939e-10
-1.26548e-08
1.11474e-09
-1.33043e-08
1.18969e-09
-1.39633e-08
1.22869e-09
-1.46393e-08
1.24443e-09
-1.53168e-08
1.2335e-09
-1.5959e-08
1.19536e-09
-1.65599e-08
1.13877e-09
-1.71333e-08
1.06845e-09
-1.76677e-08
9.85853e-10
-1.81395e-08
8.98797e-10
-1.85528e-08
8.14673e-10
-1.89225e-08
7.29792e-10
-1.92402e-08
6.36936e-10
-1.94903e-08
5.38407e-10
-1.96803e-08
4.4258e-10
-1.98244e-08
3.51402e-10
-1.99174e-08
2.5901e-10
-1.99464e-08
1.61793e-10
-1.99168e-08
6.49042e-11
-1.98446e-08
-2.16665e-11
-1.97349e-08
-9.10306e-11
-1.95851e-08
-1.4286e-10
-1.94015e-08
-1.81155e-10
-1.91962e-08
-2.11352e-10
-1.89723e-08
-2.3986e-10
-1.87216e-08
-2.7348e-10
-1.84366e-08
-3.16751e-10
-1.81152e-08
-3.70847e-10
-1.77523e-08
-4.3652e-10
-1.73366e-08
-5.16494e-10
-1.68581e-08
-6.13202e-10
-1.6312e-08
-7.25953e-10
-1.56932e-08
-8.52532e-10
-1.49926e-08
-9.92308e-10
-1.42019e-08
-1.14525e-09
-1.33199e-08
-1.30752e-09
-1.23521e-08
-1.46922e-09
-1.13055e-08
-1.61732e-09
-1.01879e-08
-1.74104e-09
-9.01309e-09
-1.83489e-09
-7.80138e-09
-1.89746e-09
-6.57474e-09
-1.92769e-09
-5.35278e-09
-1.92267e-09
-4.15345e-09
-1.87931e-09
-2.99419e-09
-1.79919e-09
-1.88973e-09
-1.69116e-09
-8.49171e-10
-1.56941e-09
1.24109e-10
-1.44759e-09
1.02984e-09
-1.33247e-09
1.86896e-09
-1.22186e-09
2.64209e-09
-1.11021e-09
3.34944e-09
-9.96441e-10
3.99071e-09
-8.85431e-10
4.56402e-09
-7.79048e-10
5.06466e-09
-6.68423e-10
5.4858e-09
-5.40154e-10
5.82044e-09
-3.88073e-10
6.06133e-09
-2.17024e-10
6.20083e-09
-3.80447e-11
6.23285e-09
1.41518e-10
6.15477e-09
3.22095e-10
5.96903e-09
5.04111e-10
5.68245e-09
6.8373e-10
5.30282e-09
8.52597e-10
4.83974e-09
9.95076e-10
4.30737e-09
1.09993e-09
3.72204e-09
1.16931e-09
3.09988e-09
1.20812e-09
2.45451e-09
1.22608e-09
1.79396e-09
1.23429e-09
1.12447e-09
1.23193e-09
4.51917e-10
1.22272e-09
-2.20028e-10
1.21033e-09
-8.83653e-10
1.18579e-09
-1.52565e-09
1.14786e-09
-2.12619e-09
1.08336e-09
-2.64652e-09
9.60268e-10
-3.02358e-09
7.48582e-10
-3.16813e-09
3.99887e-10
-2.96147e-09
-1.45271e-10
-2.25096e-09
-9.8449e-10
-9.76449e-10
-1.97933e-09
-1.49921e-09
-2.1355e-08
3.01202e-08
-3.99826e-08
1.02117e-08
-4.00416e-08
-3.96551e-08
-2.77969e-08
-6.74397e-08
-9.62201e-09
-7.56866e-08
1.04749e-08
-7.28262e-08
3.00105e-08
-6.41566e-08
4.7591e-08
-5.28756e-08
6.25131e-08
-4.1086e-08
7.45636e-08
-2.97715e-08
8.37032e-08
-1.95686e-08
9.02265e-08
-1.07176e-08
9.43926e-08
-3.30333e-09
9.65633e-08
2.77504e-09
9.70151e-08
7.61026e-09
9.60737e-08
1.13382e-08
9.40421e-08
1.40614e-08
9.11406e-08
1.59839e-08
8.75924e-08
1.72218e-08
8.35816e-08
1.79083e-08
7.92476e-08
1.81707e-08
7.47063e-08
1.80988e-08
7.00429e-08
1.78171e-08
6.53758e-08
1.73483e-08
6.07092e-08
1.68158e-08
5.609e-08
1.62092e-08
5.1599e-08
1.55574e-08
4.71906e-08
1.49237e-08
4.28984e-08
1.42942e-08
3.87485e-08
1.36947e-08
3.47378e-08
1.31142e-08
3.0846e-08
1.25506e-08
2.70813e-08
1.20281e-08
2.34375e-08
1.15522e-08
1.98972e-08
1.11129e-08
1.64598e-08
1.07289e-08
1.31305e-08
1.03804e-08
9.9013e-09
1.00451e-08
6.75276e-09
9.73781e-09
3.69928e-09
9.44569e-09
7.46377e-10
9.15538e-09
-2.12052e-09
8.85942e-09
-4.89178e-09
8.55485e-09
-7.56902e-09
8.23903e-09
-1.0141e-08
7.88426e-09
-1.26017e-08
7.51462e-09
-1.49633e-08
7.15524e-09
-1.72063e-08
6.78347e-09
-1.93253e-08
6.40047e-09
-2.13235e-08
6.00391e-09
-2.31925e-08
5.59467e-09
-2.4942e-08
5.18538e-09
-2.65633e-08
4.76504e-09
-2.80496e-08
4.35006e-09
-2.94156e-08
3.95961e-09
-3.06537e-08
3.56629e-09
-3.17582e-08
3.15885e-09
-3.27439e-08
2.75394e-09
-3.3613e-08
2.35441e-09
-3.43647e-08
1.9628e-09
-3.50055e-08
1.58461e-09
-3.55407e-08
1.22085e-09
-3.59761e-08
8.82909e-10
-3.6323e-08
5.83401e-10
-3.65966e-08
3.22063e-10
-3.68086e-08
1.05223e-10
-3.69724e-08
-4.64368e-11
-3.71088e-08
-1.23129e-10
-3.72278e-08
-1.36579e-10
-3.73319e-08
-9.39741e-11
-3.74447e-08
1.66516e-11
-3.75909e-08
1.95981e-10
-3.776e-08
4.15257e-10
-3.79434e-08
6.48557e-10
-3.81655e-08
8.85991e-10
-3.8434e-08
1.10487e-09
-3.87199e-08
1.27787e-09
-3.9014e-08
1.40878e-09
-3.93343e-08
1.51002e-09
-3.96712e-08
1.56554e-09
-3.99907e-08
1.56401e-09
-4.02883e-08
1.53104e-09
-4.0578e-08
1.48514e-09
-4.0847e-08
1.40769e-09
-4.10692e-08
1.29065e-09
-4.1247e-08
1.16368e-09
-4.1395e-08
1.04676e-09
-4.15035e-08
9.23221e-10
-4.15538e-08
7.80061e-10
-4.15497e-08
6.32839e-10
-4.1506e-08
4.9471e-10
-4.14199e-08
3.5648e-10
-4.12788e-08
2.10302e-10
-4.10845e-08
6.46666e-11
-4.08489e-08
-7.37413e-11
-4.05744e-08
-2.09628e-10
-4.02537e-08
-3.42413e-10
-3.98859e-08
-4.58838e-10
-3.94783e-08
-5.50487e-10
-3.90339e-08
-6.25552e-10
-3.85482e-08
-6.9703e-10
-3.80183e-08
-7.69745e-10
-3.74471e-08
-8.44687e-10
-3.68364e-08
-9.2742e-10
-3.61819e-08
-1.02541e-09
-3.54768e-08
-1.14155e-09
-3.47182e-08
-1.2751e-09
-3.39051e-08
-1.42631e-09
-3.30349e-08
-1.59623e-09
-3.21037e-08
-1.7837e-09
-3.11106e-08
-1.98545e-09
-3.00575e-08
-2.19826e-09
-2.89472e-08
-2.41786e-09
-2.77816e-08
-2.6348e-09
-2.65648e-08
-2.83411e-09
-2.53044e-08
-3.00147e-09
-2.40097e-08
-3.12957e-09
-2.269e-08
-3.21719e-09
-2.13547e-08
-3.26296e-09
-2.0015e-08
-3.26239e-09
-1.86824e-08
-3.21197e-09
-1.73661e-08
-3.11545e-09
-1.60725e-08
-2.98478e-09
-1.48067e-08
-2.83521e-09
-1.35751e-08
-2.67914e-09
-1.23852e-08
-2.52244e-09
-1.1242e-08
-2.365e-09
-1.01477e-08
-2.20456e-09
-9.10327e-09
-2.04084e-09
-8.11217e-09
-1.87653e-09
-7.17928e-09
-1.71194e-09
-6.30839e-09
-1.5393e-09
-5.50167e-09
-1.34687e-09
-4.76147e-09
-1.12828e-09
-4.09197e-09
-8.86533e-10
-3.49861e-09
-6.31408e-10
-2.98577e-09
-3.71328e-10
-2.55531e-09
-1.08352e-10
-2.2065e-09
1.55319e-10
-1.9367e-09
4.13942e-10
-1.74338e-09
6.59275e-10
-1.62487e-09
8.76558e-10
-1.57907e-09
1.05414e-09
-1.60269e-09
1.19295e-09
-1.69145e-09
1.29689e-09
-1.84049e-09
1.37512e-09
-2.04399e-09
1.4378e-09
-2.29606e-09
1.48401e-09
-2.58942e-09
1.51607e-09
-2.91318e-09
1.53409e-09
-3.25455e-09
1.52717e-09
-3.59166e-09
1.48498e-09
-3.89172e-09
1.38342e-09
-4.11275e-09
1.18129e-09
-4.19044e-09
8.26268e-10
-4.03739e-09
2.46839e-10
-3.53873e-09
-6.43928e-10
-2.55985e-09
-1.96338e-09
-1.08073e-09
-3.45845e-09
-2.57994e-09
-2.63789e-08
5.64992e-08
-5.53793e-08
3.92121e-08
-6.77506e-08
-2.72838e-08
-6.78286e-08
-6.73618e-08
-6.07561e-08
-8.2759e-08
-4.9917e-08
-8.36654e-08
-3.75664e-08
-7.65072e-08
-2.50618e-08
-6.53802e-08
-1.34319e-08
-5.27158e-08
-3.04421e-09
-4.01592e-08
5.788e-09
-2.84008e-08
1.30684e-08
-1.79981e-08
1.87407e-08
-8.97558e-09
2.29996e-08
-1.4839e-09
2.59714e-08
4.63847e-09
2.78311e-08
9.47849e-09
2.87003e-08
1.31923e-08
2.87418e-08
1.59425e-08
2.81018e-08
1.78618e-08
2.68919e-08
1.91182e-08
2.52308e-08
1.98318e-08
2.32053e-08
2.01243e-08
2.09204e-08
2.0102e-08
1.83997e-08
1.98691e-08
1.57601e-08
1.94553e-08
1.3005e-08
1.89643e-08
1.0178e-08
1.83844e-08
7.327e-09
1.77747e-08
4.47951e-09
1.71417e-08
1.63833e-09
1.65359e-08
-1.18097e-09
1.59335e-08
-3.96811e-09
1.53378e-08
-6.71689e-09
1.47769e-08
-9.41852e-09
1.42538e-08
-1.20693e-08
1.37637e-08
-1.46592e-08
1.33188e-08
-1.71971e-08
1.29183e-08
-1.96896e-08
1.25376e-08
-2.21277e-08
1.21759e-08
-2.45029e-08
1.18208e-08
-2.6812e-08
1.14646e-08
-2.90642e-08
1.11116e-08
-3.12443e-08
1.07349e-08
-3.3346e-08
1.03408e-08
-3.53951e-08
9.9333e-09
-3.73838e-08
9.50333e-09
-3.92933e-08
9.06477e-09
-4.11169e-08
8.60709e-09
-4.28526e-08
8.13614e-09
-4.45151e-08
7.66647e-09
-4.60929e-08
7.17242e-09
-4.75719e-08
6.66437e-09
-4.89716e-08
6.16469e-09
-5.02863e-08
5.66482e-09
-5.1499e-08
5.17231e-09
-5.26186e-08
4.68585e-09
-5.36518e-08
4.19208e-09
-5.46017e-08
3.70388e-09
-5.54725e-08
3.22516e-09
-5.62588e-08
2.7491e-09
-5.69641e-08
2.2899e-09
-5.76047e-08
1.86146e-09
-5.81863e-08
1.46454e-09
-5.8704e-08
1.10103e-09
-5.91639e-08
7.82029e-10
-5.95832e-08
5.24516e-10
-5.9964e-08
3.34359e-10
-6.02987e-08
2.11533e-10
-6.0602e-08
1.66712e-10
-6.08926e-08
1.96668e-10
-6.1155e-08
2.79067e-10
-6.13739e-08
4.14849e-10
-6.15706e-08
6.11912e-10
-6.17558e-08
8.33832e-10
-6.19073e-08
1.03746e-09
-6.20282e-08
1.22579e-09
-6.21533e-08
1.40297e-09
-6.22794e-08
1.53489e-09
-6.23704e-08
1.60103e-09
-6.24294e-08
1.62452e-09
-6.24878e-08
1.62235e-09
-6.25375e-08
1.58074e-09
-6.25457e-08
1.49337e-09
-6.25154e-08
1.37738e-09
-6.24694e-08
1.2446e-09
-6.23977e-08
1.092e-09
-6.22735e-08
9.22593e-10
-6.20991e-08
7.48805e-10
-6.18933e-08
5.7422e-10
-6.16522e-08
3.91805e-10
-6.13585e-08
2.00921e-10
-6.10131e-08
1.1084e-11
-6.06303e-08
-1.72469e-10
-6.02103e-08
-3.5535e-10
-5.97414e-08
-5.42587e-10
-5.92231e-08
-7.27937e-10
-5.8666e-08
-8.99577e-10
-5.8072e-08
-1.05284e-09
-5.74301e-08
-1.19236e-09
-5.67322e-08
-1.32347e-09
-5.59815e-08
-1.44773e-09
-5.51836e-08
-1.56763e-09
-5.43376e-08
-1.69064e-09
-5.34399e-08
-1.82518e-09
-5.24901e-08
-1.97517e-09
-5.14905e-08
-2.14118e-09
-5.04412e-08
-2.32443e-09
-4.93412e-08
-2.5263e-09
-4.81918e-08
-2.74555e-09
-4.69964e-08
-2.97919e-09
-4.57567e-08
-3.22511e-09
-4.44741e-08
-3.48087e-09
-4.31524e-08
-3.73957e-09
-4.17983e-08
-3.98886e-09
-4.04174e-08
-4.21504e-09
-3.90111e-08
-4.40774e-09
-3.75799e-08
-4.56073e-09
-3.61274e-08
-4.6697e-09
-3.466e-08
-4.73036e-09
-3.31835e-08
-4.73889e-09
-3.17009e-08
-4.69456e-09
-3.0214e-08
-4.60237e-09
-2.87261e-08
-4.47275e-09
-2.72429e-08
-4.3184e-09
-2.57719e-08
-4.15015e-09
-2.43203e-08
-3.97395e-09
-2.28946e-08
-3.79073e-09
-2.14994e-08
-3.59976e-09
-2.01386e-08
-3.4017e-09
-1.88164e-08
-3.1987e-09
-1.7538e-08
-2.9903e-09
-1.63081e-08
-2.76928e-09
-1.51293e-08
-2.52564e-09
-1.40026e-08
-2.25501e-09
-1.29285e-08
-1.96062e-09
-1.19094e-08
-1.6505e-09
-1.09484e-08
-1.3323e-09
-1.00489e-08
-1.00789e-09
-9.21438e-09
-6.79189e-10
-8.44642e-09
-3.54017e-10
-7.74608e-09
-4.10522e-11
-7.11741e-09
2.47896e-10
-6.5648e-09
5.01521e-10
-6.09269e-09
7.20838e-10
-5.70529e-09
9.09489e-10
-5.40246e-09
1.0723e-09
-5.18257e-09
1.21792e-09
-5.04202e-09
1.34345e-09
-4.97189e-09
1.44595e-09
-4.96145e-09
1.52366e-09
-4.99413e-09
1.55985e-09
-5.04348e-09
1.53432e-09
-5.07485e-09
1.41479e-09
-5.04224e-09
1.14868e-09
-4.88499e-09
6.69016e-10
-4.52113e-09
-1.17037e-10
-3.84204e-09
-1.32302e-09
-2.71681e-09
-3.08861e-09
-1.13242e-09
-5.04283e-09
-3.71237e-09
-2.58315e-08
8.23306e-08
-5.7706e-08
7.10867e-08
-7.60458e-08
-8.94404e-09
-8.33166e-08
-6.0091e-08
-8.34459e-08
-8.26297e-08
-7.91613e-08
-8.795e-08
-7.23491e-08
-8.33194e-08
-6.43256e-08
-7.34036e-08
-5.59128e-08
-6.11286e-08
-4.77915e-08
-4.82806e-08
-4.02358e-08
-3.59565e-08
-3.35741e-08
-2.46597e-08
-2.77468e-08
-1.48029e-08
-2.28644e-08
-6.3663e-09
-1.89076e-08
6.81645e-10
-1.57984e-08
6.36929e-09
-1.34877e-08
1.08816e-08
-1.18953e-08
1.435e-08
-1.09324e-08
1.6899e-08
-1.05453e-08
1.87311e-08
-1.06498e-08
1.99363e-08
-1.1172e-08
2.06465e-08
-1.20483e-08
2.09783e-08
-1.32141e-08
2.10349e-08
-1.46138e-08
2.08551e-08
-1.62001e-08
2.05505e-08
-1.79527e-08
2.0137e-08
-1.98199e-08
1.96419e-08
-2.17873e-08
1.91091e-08
-2.37998e-08
1.85484e-08
-2.58572e-08
1.79908e-08
-2.7966e-08
1.74466e-08
-3.00914e-08
1.69023e-08
-3.22153e-08
1.63777e-08
-3.43474e-08
1.58958e-08
-3.64661e-08
1.54376e-08
-3.85492e-08
1.50014e-08
-4.06012e-08
1.45895e-08
-4.26265e-08
1.42012e-08
-4.46268e-08
1.38211e-08
-4.65856e-08
1.34234e-08
-4.84967e-08
1.30226e-08
-5.03715e-08
1.26097e-08
-5.22004e-08
1.21697e-08
-5.39834e-08
1.17164e-08
-5.57188e-08
1.12387e-08
-5.74e-08
1.07459e-08
-5.90372e-08
1.02443e-08
-6.06141e-08
9.71305e-09
-6.21207e-08
9.17306e-09
-6.35763e-08
8.62802e-09
-6.4974e-08
8.06203e-09
-6.63064e-08
7.49716e-09
-6.75787e-08
6.93708e-09
-6.87794e-08
6.37298e-09
-6.99083e-08
5.81474e-09
-7.09777e-08
5.26146e-09
-7.19852e-08
4.71139e-09
-7.29302e-08
4.17021e-09
-7.38213e-08
3.64021e-09
-7.46598e-08
3.12843e-09
-7.5442e-08
2.64359e-09
-7.61739e-08
2.19642e-09
-7.68686e-08
1.79572e-09
-7.75234e-08
1.4369e-09
-7.81269e-08
1.12801e-09
-7.86891e-08
8.96499e-10
-7.92198e-08
7.42234e-10
-7.96968e-08
6.4378e-10
-8.01102e-08
6.10034e-10
-8.04885e-08
6.57403e-10
-8.08342e-08
7.6046e-10
-8.11063e-08
8.84037e-10
-8.12997e-08
1.02727e-09
-8.14535e-08
1.19124e-09
-8.15726e-08
1.3449e-09
-8.16291e-08
1.45948e-09
-8.16326e-08
1.53839e-09
-8.16179e-08
1.58627e-09
-8.158e-08
1.58671e-09
-8.14913e-08
1.53362e-09
-8.13582e-08
1.4476e-09
-8.12054e-08
1.34055e-09
-8.10267e-08
1.19866e-09
-8.07996e-08
1.01755e-09
-8.05276e-08
8.20024e-10
-8.02277e-08
6.22637e-10
-7.98938e-08
4.14945e-10
-7.95064e-08
1.86809e-10
-7.90651e-08
-4.94734e-11
-7.85855e-08
-2.78739e-10
-7.807e-08
-5.04418e-10
-7.75056e-08
-7.36857e-10
-7.68865e-08
-9.74432e-10
-7.62214e-08
-1.20776e-09
-7.55167e-08
-1.43263e-09
-7.4767e-08
-1.64926e-09
-7.39641e-08
-1.85575e-09
-7.31063e-08
-2.0501e-09
-7.21948e-08
-2.23497e-09
-7.12269e-08
-2.41564e-09
-7.01991e-08
-2.59547e-09
-6.91127e-08
-2.777e-09
-6.79724e-08
-2.96547e-09
-6.67799e-08
-3.1677e-09
-6.55336e-08
-3.38754e-09
-6.4234e-08
-3.624e-09
-6.28864e-08
-3.87389e-09
-6.14966e-08
-4.13533e-09
-6.00675e-08
-4.40835e-09
-5.86002e-08
-4.69241e-09
-5.7098e-08
-4.98301e-09
-5.5567e-08
-5.27059e-09
-5.4013e-08
-5.54289e-09
-5.24394e-08
-5.78865e-09
-5.08469e-08
-6.00021e-09
-4.92348e-08
-6.17281e-09
-4.7603e-08
-6.30155e-09
-4.5953e-08
-6.38028e-09
-4.42877e-08
-6.40426e-09
-4.26083e-08
-6.37395e-09
-4.09147e-08
-6.29597e-09
-3.9207e-08
-6.18041e-09
-3.74887e-08
-6.03673e-09
-3.57673e-08
-5.87156e-09
-3.40525e-08
-5.68869e-09
-3.23525e-08
-5.49077e-09
-3.06714e-08
-5.28088e-09
-2.90116e-08
-5.06146e-09
-2.73777e-08
-4.83256e-09
-2.57767e-08
-4.59135e-09
-2.42144e-08
-4.33153e-09
-2.26942e-08
-4.04587e-09
-2.12165e-08
-3.7327e-09
-1.97812e-08
-3.39592e-09
-1.83907e-08
-3.04106e-09
-1.70491e-08
-2.67385e-09
-1.57607e-08
-2.29632e-09
-1.45303e-08
-1.90959e-09
-1.33623e-08
-1.52206e-09
-1.22604e-08
-1.1429e-09
-1.12323e-08
-7.80216e-10
-1.02865e-08
-4.44261e-10
-9.43094e-09
-1.34705e-10
-8.67386e-09
1.52406e-10
-8.01811e-09
4.16561e-10
-7.46364e-09
6.63458e-10
-7.00966e-09
8.89485e-10
-6.64806e-09
1.08435e-09
-6.36682e-09
1.24242e-09
-6.15042e-09
1.34345e-09
-5.97452e-09
1.35842e-09
-5.80551e-09
1.24577e-09
-5.59761e-09
9.40773e-10
-5.28967e-09
3.61072e-10
-4.80119e-09
-6.05516e-10
-4.02469e-09
-2.09952e-09
-2.82185e-09
-4.29146e-09
-1.16858e-09
-6.6961e-09
-4.88095e-09
-2.26926e-08
1.05023e-07
-5.30205e-08
1.01415e-07
-7.33548e-08
1.13903e-08
-8.44577e-08
-4.89881e-08
-8.90654e-08
-7.8022e-08
-8.92685e-08
-8.77469e-08
-8.65832e-08
-8.60047e-08
-8.2105e-08
-7.78819e-08
-7.66939e-08
-6.65397e-08
-7.08637e-08
-5.41108e-08
-6.50345e-08
-4.17857e-08
-5.94146e-08
-3.02797e-08
-5.4279e-08
-1.99385e-08
-4.96968e-08
-1.09485e-08
-4.56695e-08
-3.34564e-09
-4.22681e-08
2.96785e-09
-3.94719e-08
8.08541e-09
-3.72397e-08
1.21178e-08
-3.55907e-08
1.525e-08
-3.44236e-08
1.7564e-08
-3.37261e-08
1.92388e-08
-3.34597e-08
2.03801e-08
-3.3576e-08
2.10946e-08
-3.39918e-08
2.14507e-08
-3.47145e-08
2.15778e-08
-3.56516e-08
2.14876e-08
-3.67947e-08
2.12801e-08
-3.80983e-08
2.09454e-08
-3.95441e-08
2.05549e-08
-4.11141e-08
2.01185e-08
-4.27662e-08
1.96429e-08
-4.44772e-08
1.91576e-08
-4.62524e-08
1.86775e-08
-4.80824e-08
1.82077e-08
-4.99366e-08
1.77501e-08
-5.17968e-08
1.72978e-08
-5.3665e-08
1.68696e-08
-5.55372e-08
1.64617e-08
-5.73835e-08
1.60475e-08
-5.92003e-08
1.56379e-08
-6.10062e-08
1.52292e-08
-6.27915e-08
1.4808e-08
-6.45491e-08
1.43673e-08
-6.62717e-08
1.38922e-08
-6.79618e-08
1.34065e-08
-6.96306e-08
1.29075e-08
-7.12566e-08
1.23719e-08
-7.28369e-08
1.18246e-08
-7.43883e-08
1.12645e-08
-7.58949e-08
1.06797e-08
-7.73522e-08
1.00854e-08
-7.87702e-08
9.48002e-09
-8.01407e-08
8.86767e-09
-8.14633e-08
8.25967e-09
-8.27395e-08
7.64911e-09
-8.39598e-08
7.03507e-09
-8.51273e-08
6.42895e-09
-8.62513e-08
5.83543e-09
-8.73296e-08
5.24848e-09
-8.83577e-08
4.66836e-09
-8.93435e-08
4.11421e-09
-9.0297e-08
3.59712e-09
-9.12073e-08
3.10671e-09
-9.20609e-08
2.64926e-09
-9.28773e-08
2.25331e-09
-9.36718e-08
1.92258e-09
-9.44144e-08
1.63901e-09
-9.5085e-08
1.41287e-09
-9.57086e-08
1.26742e-09
-9.62874e-08
1.18884e-09
-9.67836e-08
1.15361e-09
-9.71933e-08
1.17007e-09
-9.75469e-08
1.23772e-09
-9.78376e-08
1.31789e-09
-9.80328e-08
1.38649e-09
-9.8144e-08
1.45612e-09
-9.82065e-08
1.52196e-09
-9.82165e-08
1.54839e-09
-9.81524e-08
1.52218e-09
-9.80297e-08
1.46396e-09
-9.78781e-08
1.38205e-09
-9.76906e-08
1.26013e-09
-9.74422e-08
1.09211e-09
-9.7138e-08
8.94467e-10
-9.68021e-08
6.81636e-10
-9.64345e-08
4.52465e-10
-9.60148e-08
2.02932e-10
-9.55375e-08
-6.23904e-11
-9.50157e-08
-3.34988e-10
-9.44543e-08
-6.1085e-10
-9.38425e-08
-8.9052e-10
-9.31732e-08
-1.1737e-09
-9.24524e-08
-1.45769e-09
-9.1686e-08
-1.74089e-09
-9.08699e-08
-2.02384e-09
-8.9998e-08
-2.30449e-09
-8.90708e-08
-2.57651e-09
-8.80905e-08
-2.836e-09
-8.70538e-08
-3.08685e-09
-8.59535e-08
-3.33527e-09
-8.47873e-08
-3.58181e-09
-8.35589e-08
-3.82386e-09
-8.22715e-08
-4.06439e-09
-8.09245e-08
-4.31249e-09
-7.95172e-08
-4.57507e-09
-7.80529e-08
-4.85181e-09
-7.65378e-08
-5.13907e-09
-7.49765e-08
-5.43515e-09
-7.33716e-08
-5.74032e-09
-7.17259e-08
-6.05396e-09
-7.00449e-08
-6.3735e-09
-6.83339e-08
-6.69397e-09
-6.65975e-08
-7.00696e-09
-6.48391e-08
-7.30127e-09
-6.30611e-08
-7.56666e-09
-6.12642e-08
-7.79713e-09
-5.94475e-08
-7.98955e-09
-5.76098e-08
-8.13924e-09
-5.57514e-08
-8.23873e-09
-5.38732e-08
-8.28244e-09
-5.19752e-08
-8.27195e-09
-5.00559e-08
-8.21524e-09
-4.81151e-08
-8.1212e-09
-4.61564e-08
-7.99545e-09
-4.41869e-08
-7.841e-09
-4.22148e-08
-7.66083e-09
-4.02469e-08
-7.45869e-09
-3.82887e-08
-7.23909e-09
-3.63447e-08
-7.0054e-09
-3.44203e-08
-6.75697e-09
-3.25219e-08
-6.48977e-09
-3.0655e-08
-6.1984e-09
-2.88229e-08
-5.87797e-09
-2.70273e-08
-5.52836e-09
-2.52694e-08
-5.1538e-09
-2.35525e-08
-4.75795e-09
-2.18819e-08
-4.34449e-09
-2.02626e-08
-3.91561e-09
-1.87006e-08
-3.47151e-09
-1.72029e-08
-3.01984e-09
-1.57749e-08
-2.57093e-09
-1.4425e-08
-2.13009e-09
-1.3164e-08
-1.70525e-09
-1.20009e-08
-1.2978e-09
-1.09455e-08
-9.02978e-10
-1.00045e-08
-5.24454e-10
-9.17867e-09
-1.62316e-10
-8.46804e-09
1.78856e-10
-7.86666e-09
4.82976e-10
-7.36256e-09
7.38318e-10
-6.94179e-09
9.22693e-10
-6.58278e-09
9.99411e-10
-6.25488e-09
9.17864e-10
-5.91534e-09
6.01227e-10
-5.50489e-09
-4.93751e-11
-4.94336e-09
-1.16705e-09
-4.12168e-09
-2.92119e-09
-2.89053e-09
-5.5226e-09
-1.19959e-09
-8.38704e-09
-6.08053e-09
-1.84152e-08
1.23438e-07
-4.50704e-08
1.2807e-07
-6.49376e-08
3.12576e-08
-7.76489e-08
-3.62768e-08
-8.48769e-08
-7.0794e-08
-8.80678e-08
-8.45561e-08
-8.83749e-08
-8.56976e-08
-8.6723e-08
-7.95337e-08
-8.37554e-08
-6.95073e-08
-8.00036e-08
-5.78626e-08
-7.58974e-08
-4.58919e-08
-7.16976e-08
-3.44794e-08
-6.75901e-08
-2.40461e-08
-6.36976e-08
-1.48409e-08
-6.01653e-08
-6.87795e-09
-5.70374e-08
-1.60068e-10
-5.43271e-08
5.37508e-09
-5.20853e-08
9.87603e-09
-5.02745e-08
1.34393e-08
-4.8908e-08
1.61974e-08
-4.79611e-08
1.82919e-08
-4.73823e-08
1.98012e-08
-4.71687e-08
2.08811e-08
-4.72845e-08
2.15665e-08
-4.76796e-08
2.19729e-08
-4.83281e-08
2.21361e-08
-4.91885e-08
2.21405e-08
-5.02575e-08
2.20144e-08
-5.14725e-08
2.17699e-08
-5.28194e-08
2.14654e-08
-5.42948e-08
2.11184e-08
-5.58699e-08
2.07327e-08
-5.75175e-08
2.03251e-08
-5.92183e-08
1.99084e-08
-6.09662e-08
1.94979e-08
-6.27597e-08
1.90913e-08
-6.45719e-08
1.86819e-08
-6.6386e-08
1.82757e-08
-6.82024e-08
1.7864e-08
-7.0016e-08
1.74515e-08
-7.18197e-08
1.7033e-08
-7.35967e-08
1.6585e-08
-7.53554e-08
1.6126e-08
-7.71115e-08
1.56484e-08
-7.88392e-08
1.51341e-08
-8.05337e-08
1.4602e-08
-8.22089e-08
1.40471e-08
-8.38536e-08
1.34693e-08
-8.54683e-08
1.28791e-08
-8.70529e-08
1.22643e-08
-8.85978e-08
1.16303e-08
-9.01116e-08
1.09938e-08
-9.15931e-08
1.03492e-08
-9.30277e-08
9.69423e-09
-9.44199e-08
9.04128e-09
-9.57792e-08
8.3944e-09
-9.70984e-08
7.74812e-09
-9.83668e-08
7.10387e-09
-9.95918e-08
6.47347e-09
-1.00789e-07
5.86544e-09
-1.01949e-07
5.27445e-09
-1.03057e-07
4.70461e-09
-1.04127e-07
4.17723e-09
-1.05171e-07
3.69324e-09
-1.0616e-07
3.24264e-09
-1.07085e-07
2.84758e-09
-1.07974e-07
2.52709e-09
-1.08819e-07
2.25806e-09
-1.0958e-07
2.02838e-09
-1.10255e-07
1.86426e-09
-1.10872e-07
1.77044e-09
-1.11414e-07
1.71171e-09
-1.11844e-07
1.66794e-09
-1.12175e-07
1.64952e-09
-1.12442e-07
1.65308e-09
-1.12633e-07
1.64749e-09
-1.12722e-07
1.61075e-09
-1.12722e-07
1.54859e-09
-1.12668e-07
1.46762e-09
-1.12559e-07
1.35566e-09
-1.12379e-07
1.20115e-09
-1.1213e-07
1.01114e-09
-1.11834e-07
7.96184e-10
-1.11493e-07
5.54278e-10
-1.11095e-07
2.83178e-10
-1.10636e-07
-6.93103e-12
-1.10126e-07
-3.06224e-10
-1.09571e-07
-6.17852e-10
-1.0896e-07
-9.46157e-10
-1.08287e-07
-1.28332e-09
-1.07559e-07
-1.61872e-09
-1.0678e-07
-1.95302e-09
-1.05944e-07
-2.29322e-09
-1.05046e-07
-2.63905e-09
-1.04087e-07
-2.98268e-09
-1.03073e-07
-3.31836e-09
-1.02003e-07
-3.64661e-09
-1.00869e-07
-3.97028e-09
-9.96653e-08
-4.29063e-09
-9.83937e-08
-4.60683e-09
-9.70578e-08
-4.91774e-09
-9.56571e-08
-5.22457e-09
-9.41891e-08
-5.53235e-09
-9.26544e-08
-5.84725e-09
-9.10572e-08
-6.17228e-09
-8.94028e-08
-6.50619e-09
-8.76955e-08
-6.84639e-09
-8.59388e-08
-7.1918e-09
-8.41365e-08
-7.54267e-09
-8.22922e-08
-7.89822e-09
-8.04107e-08
-8.25499e-09
-7.84978e-08
-8.60691e-09
-7.65588e-08
-8.9459e-09
-7.4597e-08
-9.26312e-09
-7.26126e-08
-9.55103e-09
-7.06049e-08
-9.80481e-09
-6.85737e-08
-1.00208e-08
-6.65195e-08
-1.01934e-08
-6.44427e-08
-1.03155e-08
-6.23423e-08
-1.03829e-08
-6.02163e-08
-1.03979e-08
-5.80638e-08
-1.03677e-08
-5.58865e-08
-1.02985e-08
-5.36886e-08
-1.01934e-08
-5.1476e-08
-1.00536e-08
-4.92548e-08
-9.88204e-09
-4.70304e-08
-9.68309e-09
-4.48086e-08
-9.46095e-09
-4.25957e-08
-9.2183e-09
-4.03984e-08
-8.95424e-09
-3.82232e-08
-8.66498e-09
-3.60751e-08
-8.34644e-09
-3.39579e-08
-7.9952e-09
-3.18748e-08
-7.61145e-09
-2.98285e-08
-7.20011e-09
-2.78224e-08
-6.76409e-09
-2.58626e-08
-6.30421e-09
-2.39559e-08
-5.82233e-09
-2.21089e-08
-5.31852e-09
-2.03304e-08
-4.79832e-09
-1.86277e-08
-4.27362e-09
-1.70086e-08
-3.74923e-09
-1.54845e-08
-3.22934e-09
-1.40655e-08
-2.71675e-09
-1.27618e-08
-2.20673e-09
-1.15816e-08
-1.70466e-09
-1.05263e-08
-1.21761e-09
-9.59632e-09
-7.51082e-10
-8.7891e-09
-3.24237e-10
-8.09489e-09
4.4105e-11
-7.50116e-09
3.28968e-10
-6.98825e-09
4.86503e-10
-6.52763e-09
4.57234e-10
-6.07993e-09
1.5353e-10
-5.58908e-09
-5.4023e-10
-4.97706e-09
-1.77907e-09
-4.13469e-09
-3.76355e-09
-2.90371e-09
-6.75359e-09
-1.21011e-09
-1.00806e-08
-7.29065e-09
-1.40622e-08
1.37501e-07
-3.59556e-08
1.49963e-07
-5.39846e-08
4.92866e-08
-6.69559e-08
-2.33055e-08
-7.55046e-08
-6.22453e-08
-8.06084e-08
-7.94523e-08
-8.3017e-08
-8.3289e-08
-8.34676e-08
-7.90831e-08
-8.24955e-08
-7.04795e-08
-8.0622e-08
-5.9736e-08
-7.81004e-08
-4.84135e-08
-7.52528e-08
-3.73271e-08
-7.22742e-08
-2.70245e-08
-6.93639e-08
-1.77513e-08
-6.65798e-08
-9.66192e-09
-6.40241e-08
-2.71589e-09
-6.17614e-08
3.11241e-09
-5.98267e-08
7.94134e-09
-5.82421e-08
1.18547e-08
-5.70161e-08
1.49715e-08
-5.61257e-08
1.74015e-08
-5.56022e-08
1.92777e-08
-5.53714e-08
2.06503e-08
-5.54599e-08
2.16549e-08
-5.58029e-08
2.23159e-08
-5.64159e-08
2.2749e-08
-5.72332e-08
2.29579e-08
-5.82412e-08
2.30224e-08
-5.9428e-08
2.29567e-08
-6.07654e-08
2.28028e-08
-6.22245e-08
2.25774e-08
-6.37849e-08
2.22931e-08
-6.54435e-08
2.19837e-08
-6.71827e-08
2.16477e-08
-6.89688e-08
2.12841e-08
-7.07932e-08
2.09157e-08
-7.2651e-08
2.05397e-08
-7.45316e-08
2.01563e-08
-7.64258e-08
1.97581e-08
-7.83136e-08
1.93394e-08
-8.0197e-08
1.89164e-08
-8.20801e-08
1.8468e-08
-8.39424e-08
1.79884e-08
-8.57901e-08
1.74961e-08
-8.76273e-08
1.69713e-08
-8.94396e-08
1.64143e-08
-9.12337e-08
1.58412e-08
-9.30048e-08
1.52404e-08
-9.47425e-08
1.46168e-08
-9.6458e-08
1.39798e-08
-9.81494e-08
1.33217e-08
-9.98043e-08
1.26488e-08
-1.01426e-07
1.19711e-08
-1.03018e-07
1.1286e-08
-1.04573e-07
1.05958e-08
-1.06084e-07
9.90591e-09
-1.07559e-07