/*--------------------------------*- C++ -*----------------------------------*\
  =========                 |
  \\      /  F ield         | OpenFOAM: The Open Source CFD Toolbox
   \\    /   O peration     | Website:  https://openfoam.org
    \\  /    A nd           | Version:  7
     \\/     M anipulation  |
\*---------------------------------------------------------------------------*/
FoamFile
{
    version     2.0;
    format      ascii;
    class       volVectorField;
    location    "0.0125";
    object      U;
}
// * * * * * * * * * * * * * * * * * * * * * * * * * * * * * * * * * * * * * //

dimensions      [0 1 -1 0 0 0 0];

internalField   nonuniform List<vector> 
25600
(
(-0.000187796 -0.000174847 0)
(0.000328578 -0.00129193 0)
(0.00279034 -0.00249921 0)
(0.00674625 -0.00293819 0)
(0.0110571 -0.00284567 0)
(0.0150024 -0.00249887 0)
(0.0183126 -0.00203856 0)
(0.0208773 -0.00157443 0)
(0.0227458 -0.00113281 0)
(0.0239919 -0.000763438 0)
(0.0246774 -0.000433092 0)
(0.0249244 -0.000172748 0)
(0.0248041 4.99478e-05 0)
(0.024391 0.000214851 0)
(0.0237723 0.000347359 0)
(0.022982 0.000440434 0)
(0.0220793 0.000504271 0)
(0.0211248 0.000544662 0)
(0.0201195 0.00056389 0)
(0.0191114 0.000565089 0)
(0.0181234 0.000561429 0)
(0.0171556 0.000545353 0)
(0.0162206 0.00052649 0)
(0.0153378 0.000511186 0)
(0.0144927 0.00048282 0)
(0.0136834 0.0004524 0)
(0.0129342 0.000427787 0)
(0.0122147 0.000404873 0)
(0.0115301 0.00038105 0)
(0.0108929 0.000370929 0)
(0.0102768 0.000360556 0)
(0.00969314 0.000338159 0)
(0.00914845 0.000323218 0)
(0.00862492 0.00031792 0)
(0.00812025 0.000309165 0)
(0.00764211 0.000300748 0)
(0.00718206 0.000297165 0)
(0.00673413 0.000286141 0)
(0.00630294 0.000268849 0)
(0.00588639 0.000257415 0)
(0.00548277 0.000250891 0)
(0.00508985 0.000246408 0)
(0.00470946 0.000242166 0)
(0.00434617 0.00023696 0)
(0.00399688 0.000228097 0)
(0.00366552 0.00021338 0)
(0.00335259 0.000201573 0)
(0.00305426 0.000193884 0)
(0.00277339 0.000184936 0)
(0.00250774 0.000175937 0)
(0.00226182 0.000163884 0)
(0.00203733 0.000151175 0)
(0.00182769 0.00014093 0)
(0.00163844 0.000129107 0)
(0.00146814 0.000120061 0)
(0.00131176 0.000113451 0)
(0.00117471 0.000101852 0)
(0.00105597 8.80999e-05 0)
(0.000955446 7.55791e-05 0)
(0.00087578 6.49099e-05 0)
(0.000812606 5.71351e-05 0)
(0.000766033 4.80583e-05 0)
(0.00073782 3.66542e-05 0)
(0.000724795 2.69654e-05 0)
(0.000726125 1.90452e-05 0)
(0.000739125 1.35625e-05 0)
(0.000758584 1.22544e-05 0)
(0.000783646 1.19426e-05 0)
(0.000811491 1.10929e-05 0)
(0.00083571 1.23923e-05 0)
(0.00085335 1.65166e-05 0)
(0.000861114 2.42589e-05 0)
(0.000853684 3.74315e-05 0)
(0.000830351 5.25879e-05 0)
(0.000792141 6.39546e-05 0)
(0.000737578 7.1001e-05 0)
(0.000668977 7.59635e-05 0)
(0.000592506 7.98624e-05 0)
(0.000509761 8.40315e-05 0)
(0.000419927 8.90345e-05 0)
(0.000327208 9.2484e-05 0)
(0.000236682 9.24587e-05 0)
(0.000148285 9.01148e-05 0)
(6.14789e-05 8.67935e-05 0)
(-2.07819e-05 8.26433e-05 0)
(-9.68102e-05 7.84759e-05 0)
(-0.000168269 7.51483e-05 0)
(-0.00023534 7.18202e-05 0)
(-0.000295707 6.74977e-05 0)
(-0.000349124 6.26479e-05 0)
(-0.000397739 5.76306e-05 0)
(-0.000441646 5.1875e-05 0)
(-0.000478573 4.57129e-05 0)
(-0.000507904 4.04981e-05 0)
(-0.000531317 3.61654e-05 0)
(-0.000549525 3.1109e-05 0)
(-0.000561491 2.50472e-05 0)
(-0.000567206 1.98502e-05 0)
(-0.000568893 1.70031e-05 0)
(-0.000568926 1.59529e-05 0)
(-0.000568153 1.5347e-05 0)
(-0.000566572 1.44111e-05 0)
(-0.000564128 1.27751e-05 0)
(-0.000560242 1.03508e-05 0)
(-0.000553708 7.77541e-06 0)
(-0.000543662 5.76705e-06 0)
(-0.000529914 3.71782e-06 0)
(-0.000511785 2.83746e-08 0)
(-0.000487267 -5.75863e-06 0)
(-0.000454167 -1.21404e-05 0)
(-0.000411635 -1.76476e-05 0)
(-0.000359714 -2.2927e-05 0)
(-0.000297684 -2.98121e-05 0)
(-0.000224027 -3.85903e-05 0)
(-0.000138277 -4.72781e-05 0)
(-4.21982e-05 -5.37188e-05 0)
(6.12468e-05 -5.75378e-05 0)
(0.000169607 -5.98029e-05 0)
(0.000281161 -6.1391e-05 0)
(0.000393828 -6.21287e-05 0)
(0.000504651 -6.12547e-05 0)
(0.000610487 -5.81842e-05 0)
(0.000708885 -5.30009e-05 0)
(0.000798509 -4.67318e-05 0)
(0.000879145 -4.08894e-05 0)
(0.000951313 -3.61614e-05 0)
(0.00101568 -3.16995e-05 0)
(0.00107272 -2.60914e-05 0)
(0.0011228 -1.92325e-05 0)
(0.00116619 -1.26934e-05 0)
(0.00120287 -7.86997e-06 0)
(0.00123246 -4.2584e-06 0)
(0.00125444 1.67845e-07 0)
(0.00126785 7.17293e-06 0)
(0.00127094 1.65713e-05 0)
(0.0012622 2.64255e-05 0)
(0.00124092 3.53033e-05 0)
(0.00120695 4.33667e-05 0)
(0.00116081 5.14428e-05 0)
(0.0011029 6.01901e-05 0)
(0.00103322 6.8848e-05 0)
(0.00095329 7.54615e-05 0)
(0.000865665 7.97457e-05 0)
(0.000772764 8.2356e-05 0)
(0.000678174 8.32436e-05 0)
(0.000584189 8.33692e-05 0)
(0.000491102 8.27372e-05 0)
(0.00040035 8.07666e-05 0)
(0.000311596 7.91123e-05 0)
(0.00022438 7.75288e-05 0)
(0.000140303 7.57378e-05 0)
(5.775e-05 7.45686e-05 0)
(-2.26488e-05 7.16104e-05 0)
(-9.74701e-05 6.64968e-05 0)
(-0.00016467 5.94333e-05 0)
(-0.000217097 4.82115e-05 0)
(-0.000244546 3.03721e-05 0)
(-0.000230768 -1.04696e-06 0)
(-0.00014362 -4.63536e-05 0)
(-4.8457e-05 -4.52929e-05 0)
(-0.00130816 0.00036433 0)
(-0.00198063 -0.00193233 0)
(-0.000439846 -0.00541844 0)
(0.00356925 -0.00697647 0)
(0.00867093 -0.00700148 0)
(0.0137494 -0.00624383 0)
(0.0183241 -0.00512536 0)
(0.0221857 -0.00394404 0)
(0.0252211 -0.00279779 0)
(0.0274602 -0.00179001 0)
(0.0289887 -0.000920818 0)
(0.0298703 -0.000196838 0)
(0.0302253 0.000378833 0)
(0.0301308 0.000836423 0)
(0.0296781 0.00118799 0)
(0.0289622 0.00142722 0)
(0.0280517 0.0016015 0)
(0.0269766 0.00169766 0)
(0.0258196 0.00173947 0)
(0.0246148 0.00175182 0)
(0.0233754 0.00171523 0)
(0.0221402 0.00166555 0)
(0.0209384 0.00160614 0)
(0.0197493 0.0015363 0)
(0.0186008 0.00146111 0)
(0.0175111 0.00139139 0)
(0.0164544 0.00131572 0)
(0.0154456 0.00123803 0)
(0.0144841 0.00117969 0)
(0.0135622 0.00111933 0)
(0.0126868 0.00106135 0)
(0.01185 0.0010086 0)
(0.0110436 0.000959235 0)
(0.0102765 0.000913016 0)
(0.00954237 0.000874824 0)
(0.00883018 0.000844767 0)
(0.0081451 0.000817466 0)
(0.0074852 0.000790696 0)
(0.00684467 0.000761884 0)
(0.00622366 0.000736207 0)
(0.00562139 0.000711178 0)
(0.00503616 0.000684564 0)
(0.00446923 0.000663093 0)
(0.00392677 0.000638831 0)
(0.00340768 0.000610152 0)
(0.00290884 0.000578659 0)
(0.00243567 0.000545855 0)
(0.00198702 0.000518808 0)
(0.00156137 0.000488369 0)
(0.0011609 0.000454663 0)
(0.000785759 0.000424574 0)
(0.000441696 0.000389996 0)
(0.00012663 0.000354708 0)
(-0.000167205 0.000322668 0)
(-0.000434334 0.000291307 0)
(-0.000670803 0.000263417 0)
(-0.000881802 0.000232762 0)
(-0.00106929 0.000196736 0)
(-0.00123114 0.000163318 0)
(-0.0013645 0.000131481 0)
(-0.00147201 9.96398e-05 0)
(-0.00155969 7.07163e-05 0)
(-0.00162398 4.28219e-05 0)
(-0.00166164 1.63154e-05 0)
(-0.00168126 -5.90207e-06 0)
(-0.00168856 -2.4527e-05 0)
(-0.00168384 -3.72435e-05 0)
(-0.00167135 -4.04393e-05 0)
(-0.00165429 -3.75983e-05 0)
(-0.00163713 -3.22019e-05 0)
(-0.00162994 -2.08751e-05 0)
(-0.00163521 -1.0353e-06 0)
(-0.0016502 2.45602e-05 0)
(-0.00168215 5.27775e-05 0)
(-0.00173588 8.12134e-05 0)
(-0.00180258 0.000105433 0)
(-0.00187943 0.000122425 0)
(-0.00197282 0.000134764 0)
(-0.00207689 0.00014537 0)
(-0.00218019 0.000152106 0)
(-0.00228606 0.000153131 0)
(-0.00239876 0.000151628 0)
(-0.00250668 0.000149618 0)
(-0.00260176 0.000143951 0)
(-0.00269316 0.000133307 0)
(-0.00278591 0.000122129 0)
(-0.0028695 0.00011358 0)
(-0.00293792 0.000105269 0)
(-0.00299861 9.48662e-05 0)
(-0.00305541 8.39381e-05 0)
(-0.00310201 7.39472e-05 0)
(-0.00313569 6.36115e-05 0)
(-0.00316162 5.21626e-05 0)
(-0.00318149 4.10844e-05 0)
(-0.00319102 3.11047e-05 0)
(-0.00318959 2.09483e-05 0)
(-0.00318188 1.0425e-05 0)
(-0.00316929 1.82733e-06 0)
(-0.00314848 -3.08596e-06 0)
(-0.00311929 -5.36912e-06 0)
(-0.00308673 -7.13843e-06 0)
(-0.00305386 -9.29484e-06 0)
(-0.00301789 -1.19432e-05 0)
(-0.00297513 -1.56318e-05 0)
(-0.0029255 -2.09655e-05 0)
(-0.00287045 -2.78421e-05 0)
(-0.00280911 -3.60813e-05 0)
(-0.00273878 -4.62402e-05 0)
(-0.00265737 -5.90108e-05 0)
(-0.00256389 -7.41902e-05 0)
(-0.00245744 -9.08936e-05 0)
(-0.00233735 -0.000108631 0)
(-0.00220376 -0.000127529 0)
(-0.00205697 -0.000147237 0)
(-0.00189669 -0.000166054 0)
(-0.00172289 -0.000181691 0)
(-0.00153755 -0.000192792 0)
(-0.00134492 -0.00019945 0)
(-0.00114947 -0.000202334 0)
(-0.000954067 -0.000201528 0)
(-0.000760435 -0.000196331 0)
(-0.00057086 -0.000186217 0)
(-0.000388546 -0.000171972 0)
(-0.00021626 -0.00015587 0)
(-5.51824e-05 -0.0001405 0)
(9.47977e-05 -0.000127011 0)
(0.000234153 -0.000114512 0)
(0.000363246 -0.000101397 0)
(0.000482275 -8.73671e-05 0)
(0.000591034 -7.38339e-05 0)
(0.000688527 -6.19299e-05 0)
(0.000773505 -5.04725e-05 0)
(0.000845728 -3.68381e-05 0)
(0.000905806 -1.95512e-05 0)
(0.000953366 6.39146e-07 0)
(0.000986055 2.17036e-05 0)
(0.00100068 4.2235e-05 0)
(0.000995708 6.25131e-05 0)
(0.000972537 8.32293e-05 0)
(0.000933697 0.00010404 0)
(0.000880813 0.000123552 0)
(0.000814756 0.000139362 0)
(0.00073595 0.000149734 0)
(0.000645694 0.000155477 0)
(0.000547513 0.000157672 0)
(0.000444755 0.000157107 0)
(0.000339371 0.000155496 0)
(0.000233094 0.000152825 0)
(0.000126221 0.000149462 0)
(1.88612e-05 0.000146917 0)
(-8.76989e-05 0.000143384 0)
(-0.000193069 0.000138699 0)
(-0.000294806 0.000132039 0)
(-0.000386954 0.000118867 0)
(-0.00046192 9.7546e-05 0)
(-0.000507252 6.23902e-05 0)
(-0.000506301 4.92579e-06 0)
(-0.000435688 -8.85182e-05 0)
(-0.000268787 -0.00020241 0)
(-8.4257e-05 -0.000154086 0)
(-0.00250668 0.00285006 0)
(-0.005451 -0.000361661 0)
(-0.00696316 -0.00690881 0)
(-0.0058045 -0.0103309 0)
(-0.00314805 -0.0110989 0)
(4.09009e-05 -0.010389 0)
(0.00329188 -0.00896096 0)
(0.00628957 -0.00719752 0)
(0.00891433 -0.00547124 0)
(0.0110764 -0.00379738 0)
(0.0127658 -0.00236243 0)
(0.0140095 -0.00110963 0)
(0.0148543 -8.48655e-05 0)
(0.0153537 0.000754892 0)
(0.0155448 0.00139201 0)
(0.0154976 0.00189962 0)
(0.0152497 0.00223993 0)
(0.0148448 0.00247398 0)
(0.0143277 0.00262754 0)
(0.0137085 0.00268438 0)
(0.013036 0.0026927 0)
(0.0123317 0.00265944 0)
(0.011582 0.00258989 0)
(0.0108355 0.00250294 0)
(0.0100918 0.00241858 0)
(0.00933764 0.00231325 0)
(0.00860731 0.00221435 0)
(0.0079045 0.00211545 0)
(0.00720435 0.00201382 0)
(0.00652316 0.00192547 0)
(0.005876 0.00184037 0)
(0.00524315 0.00175055 0)
(0.00462759 0.00167116 0)
(0.00403802 0.00160216 0)
(0.00346547 0.00153287 0)
(0.00290505 0.00147409 0)
(0.00236397 0.0014273 0)
(0.00184057 0.001383 0)
(0.00132785 0.00134055 0)
(0.000831507 0.00130003 0)
(0.000352222 0.00126001 0)
(-0.000113564 0.00121627 0)
(-0.000563892 0.00117113 0)
(-0.000999957 0.00112645 0)
(-0.00142043 0.00107687 0)
(-0.00182462 0.00102659 0)
(-0.00220979 0.000975667 0)
(-0.00257519 0.000922437 0)
(-0.00292765 0.000870788 0)
(-0.00325872 0.000814875 0)
(-0.00356507 0.000757233 0)
(-0.00385634 0.000701655 0)
(-0.00412615 0.00064176 0)
(-0.00437362 0.000583297 0)
(-0.00460302 0.00052972 0)
(-0.00480902 0.000475112 0)
(-0.00499625 0.00042029 0)
(-0.00516624 0.000364253 0)
(-0.00531298 0.000306768 0)
(-0.00544094 0.000252532 0)
(-0.00555241 0.000199046 0)
(-0.00564705 0.000146352 0)
(-0.00572712 0.000100709 0)
(-0.00578853 5.95683e-05 0)
(-0.00583421 2.0712e-05 0)
(-0.00587416 -9.63626e-06 0)
(-0.00590552 -3.02402e-05 0)
(-0.00592663 -4.18525e-05 0)
(-0.00594682 -4.02799e-05 0)
(-0.00596646 -2.78025e-05 0)
(-0.00598252 -1.0599e-05 0)
(-0.0060024 1.45087e-05 0)
(-0.00602828 5.04899e-05 0)
(-0.00605449 8.97662e-05 0)
(-0.00608559 0.000126085 0)
(-0.00612801 0.000160351 0)
(-0.00617444 0.000190923 0)
(-0.00621819 0.000213188 0)
(-0.00626543 0.00022697 0)
(-0.00632 0.00023446 0)
(-0.0063746 0.000235985 0)
(-0.00642377 0.000232512 0)
(-0.00647001 0.000225978 0)
(-0.00651459 0.000215975 0)
(-0.00655407 0.000201451 0)
(-0.00658667 0.000184241 0)
(-0.00661368 0.00016687 0)
(-0.00663445 0.000149414 0)
(-0.00664637 0.000131171 0)
(-0.00664953 0.000112517 0)
(-0.0066464 9.36395e-05 0)
(-0.00663698 7.41712e-05 0)
(-0.00661841 5.46177e-05 0)
(-0.00658991 3.58017e-05 0)
(-0.00655448 1.71946e-05 0)
(-0.00651463 -1.88857e-06 0)
(-0.00646888 -1.99778e-05 0)
(-0.00641435 -3.45994e-05 0)
(-0.006351 -4.53782e-05 0)
(-0.00628132 -5.40559e-05 0)
(-0.00620687 -6.19414e-05 0)
(-0.00612682 -6.93209e-05 0)
(-0.00603973 -7.70448e-05 0)
(-0.0059452 -8.66954e-05 0)
(-0.0058433 -9.90381e-05 0)
(-0.00573398 -0.000113694 0)
(-0.00561721 -0.00013055 0)
(-0.00549272 -0.000150403 0)
(-0.00535908 -0.000173807 0)
(-0.00521434 -0.000200166 0)
(-0.00505833 -0.000228501 0)
(-0.00489321 -0.000258467 0)
(-0.00472098 -0.000289857 0)
(-0.00454105 -0.000321361 0)
(-0.00435142 -0.000350447 0)
(-0.00415191 -0.000374667 0)
(-0.00394524 -0.000392871 0)
(-0.00373499 -0.000405036 0)
(-0.00352327 -0.000411127 0)
(-0.00331056 -0.000410496 0)
(-0.00309704 -0.0004025 0)
(-0.00288397 -0.000387486 0)
(-0.00267367 -0.000367101 0)
(-0.00246833 -0.000343843 0)
(-0.00226906 -0.000320159 0)
(-0.00207599 -0.000297422 0)
(-0.00188918 -0.000275466 0)
(-0.00170913 -0.000253292 0)
(-0.00153675 -0.000230451 0)
(-0.00137322 -0.000207533 0)
(-0.00121981 -0.000184906 0)
(-0.00107717 -0.000161462 0)
(-0.000944486 -0.000135257 0)
(-0.000820527 -0.000105079 0)
(-0.000705742 -7.13435e-05 0)
(-0.00060254 -3.57286e-05 0)
(-0.000513694 4.03749e-07 0)
(-0.000440119 3.67091e-05 0)
(-0.000379886 7.28721e-05 0)
(-0.000330799 0.000108308 0)
(-0.000292574 0.000141791 0)
(-0.0002657 0.000170779 0)
(-0.000251386 0.000193411 0)
(-0.000250376 0.000209516 0)
(-0.000260805 0.000219599 0)
(-0.000281058 0.000225667 0)
(-0.00030997 0.00022952 0)
(-0.000345741 0.000231504 0)
(-0.000388788 0.000232552 0)
(-0.000438324 0.000232243 0)
(-0.000491767 0.000229149 0)
(-0.00054777 0.00022221 0)
(-0.000601542 0.000207924 0)
(-0.000645856 0.00018123 0)
(-0.000672357 0.000135472 0)
(-0.000668583 6.17247e-05 0)
(-0.000621176 -5.20069e-05 0)
(-0.000506449 -0.000225092 0)
(-0.000300662 -0.000427317 0)
(-9.61637e-05 -0.000322282 0)
(-0.00293873 0.00681714 0)
(-0.00699569 0.00366529 0)
(-0.0103715 -0.00573442 0)
(-0.0112594 -0.0111986 0)
(-0.0104771 -0.013065 0)
(-0.00896046 -0.0128658 0)
(-0.00702192 -0.0115437 0)
(-0.00499746 -0.00970744 0)
(-0.00304214 -0.00767524 0)
(-0.00125866 -0.00573496 0)
(0.000271903 -0.00391435 0)
(0.00156955 -0.0023433 0)
(0.00260741 -0.000993822 0)
(0.00339096 0.000108748 0)
(0.00396461 0.00101475 0)
(0.00434995 0.00170497 0)
(0.00455294 0.00223356 0)
(0.004632 0.00261826 0)
(0.00457455 0.00286631 0)
(0.00441858 0.00302742 0)
(0.00419208 0.00311216 0)
(0.00388577 0.00311963 0)
(0.00354104 0.00309291 0)
(0.00315982 0.00303555 0)
(0.00273646 0.00295089 0)
(0.00230387 0.0028598 0)
(0.00185969 0.00276226 0)
(0.00139851 0.00266209 0)
(0.000945107 0.00255445 0)
(0.000492418 0.00245574 0)
(3.50698e-05 0.00236003 0)
(-0.000414312 0.002266 0)
(-0.000854526 0.00217834 0)
(-0.00129259 0.00209579 0)
(-0.00172173 0.0020177 0)
(-0.00213844 0.00194805 0)
(-0.00254855 0.00188441 0)
(-0.00295198 0.00182399 0)
(-0.0033479 0.00177158 0)
(-0.00373272 0.00172299 0)
(-0.00410806 0.00167197 0)
(-0.00447486 0.00161784 0)
(-0.00482664 0.0015607 0)
(-0.00516803 0.00150283 0)
(-0.00550072 0.00144005 0)
(-0.00582436 0.00137514 0)
(-0.00613863 0.00131252 0)
(-0.00643486 0.00124457 0)
(-0.00671969 0.00117386 0)
(-0.00699474 0.00110401 0)
(-0.00725122 0.00103009 0)
(-0.00749621 0.000956134 0)
(-0.0077283 0.000882435 0)
(-0.00794381 0.000807394 0)
(-0.00814726 0.000735543 0)
(-0.00833238 0.000663072 0)
(-0.00850213 0.000588844 0)
(-0.00866413 0.000518545 0)
(-0.00881006 0.000448102 0)
(-0.00893953 0.00037644 0)
(-0.00906 0.000308909 0)
(-0.0091688 0.000243525 0)
(-0.00926543 0.000182506 0)
(-0.00935337 0.000132105 0)
(-0.0094314 8.72813e-05 0)
(-0.00950147 4.60635e-05 0)
(-0.0095667 1.76732e-05 0)
(-0.00962296 3.3864e-06 0)
(-0.00967064 -1.79551e-06 0)
(-0.00971949 4.86914e-06 0)
(-0.00976893 2.5023e-05 0)
(-0.00980667 5.28596e-05 0)
(-0.00983425 8.53524e-05 0)
(-0.0098649 0.000122464 0)
(-0.00989627 0.00015996 0)
(-0.0099171 0.000193573 0)
(-0.00993311 0.00022326 0)
(-0.00995487 0.00024797 0)
(-0.00997501 0.000263959 0)
(-0.00998487 0.000270032 0)
(-0.00999266 0.000268742 0)
(-0.0100041 0.000262638 0)
(-0.0100093 0.000252435 0)
(-0.0100039 0.000237762 0)
(-0.00999748 0.000218394 0)
(-0.00999256 0.000195591 0)
(-0.00997826 0.000171798 0)
(-0.00995057 0.000148028 0)
(-0.00991838 0.00012297 0)
(-0.00988566 9.58576e-05 0)
(-0.0098451 6.83134e-05 0)
(-0.00979221 4.19852e-05 0)
(-0.00973175 1.62043e-05 0)
(-0.00966773 -1.05231e-05 0)
(-0.00959758 -3.7971e-05 0)
(-0.00951876 -6.43931e-05 0)
(-0.00943294 -8.84208e-05 0)
(-0.00934151 -0.000109717 0)
(-0.00924247 -0.000128396 0)
(-0.00913413 -0.000144917 0)
(-0.00901783 -0.000160319 0)
(-0.00889502 -0.000175763 0)
(-0.00876461 -0.000191888 0)
(-0.00862479 -0.000209069 0)
(-0.00847591 -0.000228195 0)
(-0.00831969 -0.000250588 0)
(-0.00815667 -0.000276832 0)
(-0.00798576 -0.000306128 0)
(-0.00780581 -0.000337396 0)
(-0.00761695 -0.000370688 0)
(-0.00742048 -0.000406821 0)
(-0.00721799 -0.00044567 0)
(-0.00701048 -0.000485373 0)
(-0.00679795 -0.000523238 0)
(-0.00657977 -0.000557141 0)
(-0.00635575 -0.000585952 0)
(-0.00612704 -0.000608991 0)
(-0.00589568 -0.000625463 0)
(-0.00566309 -0.000634392 0)
(-0.00542907 -0.000634916 0)
(-0.00519268 -0.000626856 0)
(-0.00495395 -0.000611232 0)
(-0.00471448 -0.000590039 0)
(-0.00447635 -0.00056536 0)
(-0.00424077 -0.000538686 0)
(-0.00400772 -0.000510891 0)
(-0.0037771 -0.000482493 0)
(-0.00354983 -0.00045377 0)
(-0.00332783 -0.00042475 0)
(-0.00311283 -0.00039531 0)
(-0.00290575 -0.000364911 0)
(-0.00270683 -0.000332293 0)
(-0.00251543 -0.000296166 0)
(-0.00233045 -0.000256109 0)
(-0.00215221 -0.000212542 0)
(-0.00198276 -0.000166479 0)
(-0.00182434 -0.000118995 0)
(-0.00167776 -7.07504e-05 0)
(-0.00154129 -2.26793e-05 0)
(-0.00141284 2.41769e-05 0)
(-0.00129319 6.91046e-05 0)
(-0.00118453 0.00011021 0)
(-0.00108891 0.000145358 0)
(-0.00100815 0.000174154 0)
(-0.000941148 0.000196796 0)
(-0.000886514 0.000214878 0)
(-0.000844705 0.000230566 0)
(-0.000814761 0.000243665 0)
(-0.000797071 0.000254047 0)
(-0.000791574 0.000261071 0)
(-0.000794407 0.000262181 0)
(-0.000802617 0.000255409 0)
(-0.000811495 0.000236721 0)
(-0.000813935 0.000198312 0)
(-0.000801483 0.000129947 0)
(-0.000761544 1.85034e-05 0)
(-0.000682132 -0.000150977 0)
(-0.000542137 -0.00039813 0)
(-0.000317463 -0.000674415 0)
(-0.000105697 -0.000500356 0)
(-0.00284619 0.0111373 0)
(-0.00701931 0.00878706 0)
(-0.0111435 -0.00305592 0)
(-0.0131375 -0.0103898 0)
(-0.0135486 -0.0134424 0)
(-0.0131323 -0.0139262 0)
(-0.012193 -0.0129575 0)
(-0.0109592 -0.0112496 0)
(-0.00962435 -0.00922423 0)
(-0.00828218 -0.00716315 0)
(-0.00700582 -0.00520923 0)
(-0.00587872 -0.00345079 0)
(-0.00487366 -0.0019221 0)
(-0.00400707 -0.000628992 0)
(-0.00330543 0.000434193 0)
(-0.00274904 0.00128775 0)
(-0.00230515 0.00195486 0)
(-0.00200772 0.00245501 0)
(-0.00180175 0.00281408 0)
(-0.00168864 0.00306666 0)
(-0.00168025 0.00321508 0)
(-0.00172816 0.00330133 0)
(-0.00184234 0.00332735 0)
(-0.00201132 0.0033063 0)
(-0.00221324 0.00325547 0)
(-0.00245941 0.00319473 0)
(-0.00272761 0.00310411 0)
(-0.0030142 0.00301398 0)
(-0.00332666 0.00292492 0)
(-0.00364522 0.00282613 0)
(-0.00396888 0.00272813 0)
(-0.00430387 0.00263716 0)
(-0.00464436 0.00254801 0)
(-0.0049841 0.00246346 0)
(-0.00532331 0.00238757 0)
(-0.00566455 0.00231495 0)
(-0.00600373 0.00224443 0)
(-0.0063325 0.00217794 0)
(-0.00665709 0.00211599 0)
(-0.00698113 0.00205519 0)
(-0.00729967 0.0019948 0)
(-0.00761039 0.00193712 0)
(-0.00790984 0.00187425 0)
(-0.0082056 0.0018057 0)
(-0.00849755 0.00173562 0)
(-0.00877677 0.00166144 0)
(-0.00905006 0.00158707 0)
(-0.00931754 0.00151058 0)
(-0.00957483 0.0014285 0)
(-0.00982211 0.00134736 0)
(-0.0100572 0.00126359 0)
(-0.0102857 0.0011758 0)
(-0.0105065 0.00109093 0)
(-0.0107131 0.00100595 0)
(-0.0109106 0.000920811 0)
(-0.0110985 0.00083736 0)
(-0.0112723 0.00075076 0)
(-0.0114375 0.000665869 0)
(-0.0115956 0.000586756 0)
(-0.0117418 0.000505989 0)
(-0.0118796 0.000426067 0)
(-0.0120117 0.000354181 0)
(-0.0121317 0.000286121 0)
(-0.012242 0.00022205 0)
(-0.0123525 0.000169718 0)
(-0.0124571 0.000127812 0)
(-0.0125473 9.27738e-05 0)
(-0.0126322 6.94117e-05 0)
(-0.0127158 5.95847e-05 0)
(-0.0127878 5.89578e-05 0)
(-0.0128495 6.83169e-05 0)
(-0.0129089 9.05877e-05 0)
(-0.0129591 0.000120467 0)
(-0.0129937 0.000150218 0)
(-0.0130216 0.000178753 0)
(-0.0130461 0.000206756 0)
(-0.013059 0.000231051 0)
(-0.0130603 0.000248638 0)
(-0.0130601 0.000259336 0)
(-0.0130594 0.000262866 0)
(-0.0130497 0.000258839 0)
(-0.013029 0.000248693 0)
(-0.0130042 0.000233544 0)
(-0.0129787 0.000212702 0)
(-0.0129484 0.000186935 0)
(-0.012909 0.000159376 0)
(-0.0128619 0.000131303 0)
(-0.0128103 0.000101029 0)
(-0.0127534 6.80465e-05 0)
(-0.0126884 3.4399e-05 0)
(-0.0126149 1.33096e-06 0)
(-0.0125344 -3.19524e-05 0)
(-0.0124473 -6.57606e-05 0)
(-0.0123523 -9.91763e-05 0)
(-0.0122498 -0.000132042 0)
(-0.0121411 -0.000164905 0)
(-0.0120256 -0.000196805 0)
(-0.011901 -0.000225679 0)
(-0.0117669 -0.000251246 0)
(-0.0116249 -0.000275507 0)
(-0.0114758 -0.000300103 0)
(-0.0113173 -0.000324833 0)
(-0.0111477 -0.00034925 0)
(-0.0109682 -0.000374365 0)
(-0.0107812 -0.000401962 0)
(-0.0105872 -0.000432947 0)
(-0.0103847 -0.00046707 0)
(-0.010173 -0.000503684 0)
(-0.00995276 -0.000542284 0)
(-0.00972578 -0.000582661 0)
(-0.0094932 -0.000624873 0)
(-0.00925579 -0.000668722 0)
(-0.00901409 -0.000713006 0)
(-0.00876813 -0.000755397 0)
(-0.00851773 -0.000793353 0)
(-0.00826331 -0.000825329 0)
(-0.00800605 -0.000850974 0)
(-0.00774687 -0.000870086 0)
(-0.00748559 -0.000881701 0)
(-0.00722123 -0.000884499 0)
(-0.0069533 -0.000878097 0)
(-0.00668238 -0.000863776 0)
(-0.00640961 -0.000843788 0)
(-0.00613575 -0.000820029 0)
(-0.00586114 -0.000793421 0)
(-0.0055863 -0.00076427 0)
(-0.00531225 -0.000732947 0)
(-0.00504026 -0.000700119 0)
(-0.00477182 -0.000666317 0)
(-0.00450834 -0.000631604 0)
(-0.00425071 -0.000595529 0)
(-0.00399921 -0.000556934 0)
(-0.00375343 -0.000514399 0)
(-0.00351263 -0.000467345 0)
(-0.00327732 -0.000416267 0)
(-0.00304963 -0.000362372 0)
(-0.00283153 -0.000306997 0)
(-0.00262358 -0.000250567 0)
(-0.00242422 -0.000193275 0)
(-0.00223141 -0.000136296 0)
(-0.00204673 -8.08347e-05 0)
(-0.00187393 -2.85065e-05 0)
(-0.00171547 1.8602e-05 0)
(-0.00157306 6.04628e-05 0)
(-0.00144597 9.78631e-05 0)
(-0.00133276 0.000131413 0)
(-0.00123499 0.000162514 0)
(-0.00115315 0.000190356 0)
(-0.00108734 0.000213445 0)
(-0.00103749 0.000231266 0)
(-0.000999375 0.000240873 0)
(-0.000969044 0.000238673 0)
(-0.000942805 0.000219348 0)
(-0.000914767 0.000173222 0)
(-0.000876919 8.76444e-05 0)
(-0.000816025 -5.46462e-05 0)
(-0.000718926 -0.000273385 0)
(-0.000564271 -0.000591369 0)
(-0.000328809 -0.000938942 0)
(-0.000112702 -0.000686669 0)
(-0.00250395 0.0150949 0)
(-0.00627189 0.0138926 0)
(-0.0104534 0.000165912 0)
(-0.012971 -0.00883517 0)
(-0.014077 -0.0129791 0)
(-0.0144022 -0.0141968 0)
(-0.0141487 -0.0136811 0)
(-0.0135487 -0.0122123 0)
(-0.012732 -0.0103258 0)
(-0.0118087 -0.00826819 0)
(-0.010872 -0.00629616 0)
(-0.00994238 -0.00444509 0)
(-0.00907319 -0.0028145 0)
(-0.00829872 -0.00140962 0)
(-0.00760756 -0.000229436 0)
(-0.00700495 0.000742686 0)
(-0.00651902 0.00151804 0)
(-0.0061131 0.00212298 0)
(-0.00580212 0.00258619 0)
(-0.00558367 0.00291392 0)
(-0.00543025 0.00314765 0)
(-0.00535601 0.00329823 0)
(-0.00534978 0.00337867 0)
(-0.00539323 0.00341881 0)
(-0.00548277 0.00341309 0)
(-0.0056196 0.0033771 0)
(-0.00579236 0.00333193 0)
(-0.00598269 0.00326026 0)
(-0.00620386 0.00318323 0)
(-0.00645008 0.00310449 0)
(-0.00670713 0.00302084 0)
(-0.00697588 0.00293577 0)
(-0.00725644 0.00285114 0)
(-0.00754429 0.00276966 0)
(-0.00783829 0.00269432 0)
(-0.00813748 0.00262243 0)
(-0.00843789 0.00255419 0)
(-0.00873572 0.00248837 0)
(-0.00903385 0.00242253 0)
(-0.00932887 0.00235707 0)
(-0.00961617 0.00229062 0)
(-0.00990399 0.00222545 0)
(-0.0101895 0.00215805 0)
(-0.0104662 0.00208378 0)
(-0.0107389 0.00200924 0)
(-0.0110078 0.00193107 0)
(-0.0112719 0.00184666 0)
(-0.0115296 0.00176253 0)
(-0.0117795 0.0016754 0)
(-0.0120238 0.00158543 0)
(-0.0122624 0.00149445 0)
(-0.0124924 0.00139826 0)
(-0.0127139 0.00130318 0)
(-0.0129296 0.00121147 0)
(-0.0131383 0.00111617 0)
(-0.0133382 0.00102168 0)
(-0.0135292 0.000930611 0)
(-0.0137105 0.00083695 0)
(-0.0138862 0.000744651 0)
(-0.0140578 0.000658234 0)
(-0.0142182 0.000572951 0)
(-0.0143711 0.000490935 0)
(-0.0145229 0.00041808 0)
(-0.0146642 0.000350071 0)
(-0.0147943 0.00028582 0)
(-0.0149251 0.00023472 0)
(-0.0150517 0.000198204 0)
(-0.0151621 0.000168863 0)
(-0.0152634 0.000147375 0)
(-0.0153636 0.00013879 0)
(-0.0154522 0.000140925 0)
(-0.0155205 0.000150013 0)
(-0.0155785 0.000165869 0)
(-0.0156343 0.000186088 0)
(-0.0156768 0.000206091 0)
(-0.0156975 0.000224253 0)
(-0.0157073 0.000239447 0)
(-0.0157155 0.000248249 0)
(-0.0157144 0.000249363 0)
(-0.0156976 0.000245101 0)
(-0.0156734 0.000236239 0)
(-0.0156474 0.000220835 0)
(-0.015613 0.00019851 0)
(-0.015567 0.000171251 0)
(-0.0155159 0.000140456 0)
(-0.0154618 0.000106558 0)
(-0.0153988 7.05288e-05 0)
(-0.0153247 3.323e-05 0)
(-0.0152447 -5.68922e-06 0)
(-0.0151607 -4.65052e-05 0)
(-0.015068 -8.80189e-05 0)
(-0.0149635 -0.000128831 0)
(-0.0148501 -0.000169199 0)
(-0.0147316 -0.000210296 0)
(-0.014607 -0.000252036 0)
(-0.014473 -0.00029281 0)
(-0.0143282 -0.000331313 0)
(-0.0141744 -0.000367836 0)
(-0.0140127 -0.000403463 0)
(-0.0138425 -0.000438529 0)
(-0.0136623 -0.000472568 0)
(-0.0134709 -0.000505712 0)
(-0.0132687 -0.000539249 0)
(-0.013057 -0.000574521 0)
(-0.0128366 -0.000611929 0)
(-0.012608 -0.000651322 0)
(-0.0123709 -0.000692777 0)
(-0.0121247 -0.000736507 0)
(-0.0118698 -0.000782267 0)
(-0.0116077 -0.000829399 0)
(-0.0113409 -0.000877406 0)
(-0.0110706 -0.000925915 0)
(-0.0107962 -0.000973903 0)
(-0.0105169 -0.00101946 0)
(-0.0102329 -0.00106057 0)
(-0.00994563 -0.00109593 0)
(-0.0096564 -0.00112495 0)
(-0.00936524 -0.00114702 0)
(-0.00907091 -0.00116121 0)
(-0.00877219 -0.00116675 0)
(-0.00846908 -0.0011636 0)
(-0.00816261 -0.00115262 0)
(-0.00785374 -0.00113525 0)
(-0.00754268 -0.00111314 0)
(-0.00722921 -0.00108756 0)
(-0.00691348 -0.00105899 0)
(-0.00659666 -0.0010273 0)
(-0.00628071 -0.000992571 0)
(-0.00596771 -0.000955407 0)
(-0.00565906 -0.000916432 0)
(-0.00535499 -0.000875635 0)
(-0.00505504 -0.000831888 0)
(-0.00475894 -0.000783515 0)
(-0.00446695 -0.000729976 0)
(-0.00418047 -0.000672243 0)
(-0.00390186 -0.000611755 0)
(-0.00363224 -0.000549629 0)
(-0.00337116 -0.000485673 0)
(-0.00311777 -0.000419186 0)
(-0.00287139 -0.000351459 0)
(-0.00263403 -0.000284656 0)
(-0.00241002 -0.000220376 0)
(-0.00220148 -0.00016018 0)
(-0.00200922 -0.00010356 0)
(-0.00183318 -4.93388e-05 0)
(-0.00167253 2.01306e-06 0)
(-0.00152961 5.07193e-05 0)
(-0.00140608 9.56862e-05 0)
(-0.00130111 0.000134682 0)
(-0.0012143 0.000166778 0)
(-0.00114217 0.00018869 0)
(-0.00108047 0.000194952 0)
(-0.00102607 0.000178056 0)
(-0.000973998 0.000127203 0)
(-0.000917403 2.80502e-05 0)
(-0.000843784 -0.000139341 0)
(-0.000738585 -0.000400467 0)
(-0.00057754 -0.000785257 0)
(-0.000337281 -0.0012066 0)
(-0.00011806 -0.000876441 0)
(-0.00205041 0.0184227 0)
(-0.00517175 0.0185052 0)
(-0.00905748 0.00346109 0)
(-0.0116951 -0.00684779 0)
(-0.0131729 -0.01198 0)
(-0.0139675 -0.0138693 0)
(-0.0141975 -0.0138254 0)
(-0.014072 -0.0126959 0)
(-0.0136791 -0.0109538 0)
(-0.0131265 -0.00904386 0)
(-0.0124786 -0.00707132 0)
(-0.0118036 -0.00523424 0)
(-0.0111446 -0.0035624 0)
(-0.010489 -0.00209668 0)
(-0.0098929 -0.000839413 0)
(-0.00936367 0.000202 0)
(-0.00888602 0.00106321 0)
(-0.00849606 0.00175303 0)
(-0.00817262 0.00228794 0)
(-0.00791378 0.00270011 0)
(-0.00773287 0.00300429 0)
(-0.00761335 0.00321223 0)
(-0.00754755 0.00336042 0)
(-0.00754223 0.00344106 0)
(-0.00758831 0.00348773 0)
(-0.00766856 0.00349151 0)
(-0.0077915 0.00347808 0)
(-0.00795128 0.00344192 0)
(-0.00813228 0.00338725 0)
(-0.00833711 0.00332768 0)
(-0.00856307 0.00326346 0)
(-0.00880967 0.00319302 0)
(-0.00907022 0.00312073 0)
(-0.00933563 0.00304935 0)
(-0.0096097 0.0029781 0)
(-0.00989593 0.00290705 0)
(-0.0101871 0.00284029 0)
(-0.010476 0.00277639 0)
(-0.0107661 0.0027102 0)
(-0.0110591 0.0026445 0)
(-0.011348 0.00257744 0)
(-0.0116325 0.00250587 0)
(-0.0119164 0.00243418 0)
(-0.0121978 0.00235845 0)
(-0.0124758 0.00227835 0)
(-0.012751 0.00219619 0)
(-0.0130206 0.00210752 0)
(-0.0132853 0.00201719 0)
(-0.0135475 0.00192604 0)
(-0.0138025 0.00182853 0)
(-0.0140531 0.00173053 0)
(-0.0143003 0.00163257 0)
(-0.0145368 0.0015299 0)
(-0.0147691 0.00142842 0)
(-0.0149994 0.00132847 0)
(-0.0152176 0.0012254 0)
(-0.0154295 0.00112562 0)
(-0.0156394 0.0010299 0)
(-0.0158384 0.00093 0)
(-0.0160303 0.000831427 0)
(-0.0162211 0.000742787 0)
(-0.0164025 0.000658033 0)
(-0.0165744 0.000574334 0)
(-0.0167455 0.000499208 0)
(-0.016911 0.000433476 0)
(-0.0170616 0.000373846 0)
(-0.0172038 0.000324027 0)
(-0.017346 0.000286746 0)
(-0.017478 0.000258605 0)
(-0.0175905 0.000238576 0)
(-0.017692 0.000228617 0)
(-0.0177866 0.000226535 0)
(-0.017865 0.00022787 0)
(-0.0179245 0.000231822 0)
(-0.0179729 0.000238858 0)
(-0.0180104 0.000245915 0)
(-0.0180316 0.000248686 0)
(-0.0180377 0.000245845 0)
(-0.0180345 0.000237852 0)
(-0.0180223 0.000224385 0)
(-0.017998 0.000205291 0)
(-0.017962 0.000181343 0)
(-0.0179179 0.000152431 0)
(-0.0178681 0.000117693 0)
(-0.0178104 7.83325e-05 0)
(-0.0177412 3.7202e-05 0)
(-0.0176617 -5.08837e-06 0)
(-0.0175762 -5.04752e-05 0)
(-0.0174852 -9.91824e-05 0)
(-0.0173842 -0.000148441 0)
(-0.0172709 -0.000196456 0)
(-0.0171482 -0.00024465 0)
(-0.0170189 -0.000294691 0)
(-0.0168816 -0.000345683 0)
(-0.0167338 -0.000395616 0)
(-0.0165757 -0.000443899 0)
(-0.0164084 -0.000491213 0)
(-0.0162317 -0.000537936 0)
(-0.0160447 -0.000583872 0)
(-0.0158472 -0.000628955 0)
(-0.0156392 -0.000673313 0)
(-0.0154202 -0.000717085 0)
(-0.0151899 -0.000760827 0)
(-0.0149488 -0.000805702 0)
(-0.0146985 -0.000852652 0)