/*--------------------------------*- C++ -*----------------------------------*\
  =========                 |
  \\      /  F ield         | OpenFOAM: The Open Source CFD Toolbox
   \\    /   O peration     | Website:  https://openfoam.org
    \\  /    A nd           | Version:  7
     \\/     M anipulation  |
\*---------------------------------------------------------------------------*/
FoamFile
{
    version     2.0;
    format      ascii;
    class       volScalarField;
    location    "0.325";
    object      p;
}
// * * * * * * * * * * * * * * * * * * * * * * * * * * * * * * * * * * * * * //

dimensions      [0 2 -2 0 0 0 0];

internalField   nonuniform List<scalar> 
6400
(
5.80435e-06
2.20326e-05
-0.000484166
-0.00151709
-0.00295949
-0.00470112
-0.00664167
-0.00869164
-0.0107738
-0.0128229
-0.0147837
-0.01661
-0.0182634
-0.0197122
-0.0209307
-0.0218981
-0.0225982
-0.0230189
-0.0231516
-0.022991
-0.0225346
-0.0217824
-0.020737
-0.0194028
-0.0177863
-0.0158957
-0.013741
-0.0113333
-0.00868529
-0.00581089
-0.00272509
0.000556087
0.00401563
0.00763566
0.0113975
0.0152818
0.0192686
0.0233372
0.0274666
0.0316352
0.0358214
0.0400029
0.0441575
0.0482631
0.0522973
0.0562381
0.0600636
0.0637524
0.0672836
0.0706371
0.0737933
0.0767337
0.079441
0.0818991
0.0840934
0.0860108
0.0876402
0.0889724
0.0900003
0.0907195
0.091128
0.0912266
0.0910195
0.090514
0.0897211
0.0886559
0.0873378
0.0857908
0.0840443
0.0821336
0.0801004
0.0779938
0.0758713
0.0737999
0.0718574
0.070132
0.0687208
0.0677279
0.0672598
0.0672973
-2.06438e-06
1.1519e-05
-0.000442177
-0.00132559
-0.00253945
-0.00400456
-0.00564505
-0.00738859
-0.00916996
-0.0109319
-0.0126247
-0.014206
-0.0156395
-0.0168951
-0.0179476
-0.0187767
-0.0193662
-0.0197035
-0.0197796
-0.0195884
-0.0191266
-0.0183934
-0.0173903
-0.0161208
-0.0145903
-0.0128059
-0.0107764
-0.00851189
-0.00602384
-0.00332493
-0.00042898
0.00264919
0.0058938
0.00928823
0.0128151
0.0164562
0.020193
0.0240061
0.0278757
0.0317819
0.035704
0.0396215
0.0435136
0.0473593
0.0511381
0.0548291
0.0584122
0.0618675
0.0651754
0.0683174
0.0712754
0.0740326
0.0765729
0.0788818
0.080946
0.0827539
0.0842957
0.0855632
0.0865508
0.087255
0.0876746
0.0878114
0.0876701
0.0872585
0.0865879
0.0856733
0.0845336
0.0831923
0.0816774
0.0800222
0.0782655
0.0764523
0.074634
0.0728691
0.071223
0.069767
0.0685743
0.0677196
0.0672963
0.0673348
0.000504674
0.000466559
1.26048e-05
-0.000803333
-0.00189399
-0.00319608
-0.00464846
-0.00619106
-0.00776826
-0.00933004
-0.0108321
-0.0122358
-0.0135077
-0.0146195
-0.0155475
-0.016272
-0.0167772
-0.0170507
-0.0170832
-0.0168686
-0.016403
-0.0156851
-0.0147158
-0.0134978
-0.0120357
-0.010336
-0.00840642
-0.00625627
-0.00389609
-0.00133762
0.00140629
0.00432178
0.00739409
0.0106076
0.013946
0.0173921
0.0209284
0.0245366
0.0281981
0.0318939
0.0356047
0.039311
0.042993
0.0466313
0.0502061
0.053698
0.057088
0.0603573
0.0634878
0.0664619
0.0692628
0.0718748
0.0742831
0.0764741
0.0784357
0.0801573
0.08163
0.0828467
0.0838023
0.0844942
0.0849218
0.0850873
0.0849957
0.084655
0.0840764
0.0832744
0.0822675
0.0810777
0.0797317
0.0782605
0.0766998
0.0750904
0.0734783
0.0719144
0.0704546
0.0691582
0.0680845
0.0672938
0.0668716
0.066869
0.00153737
0.00135231
0.000828588
9.38612e-06
-0.00103862
-0.00226187
-0.00360864
-0.00502823
-0.00647301
-0.0078994
-0.00926821
-0.0105447
-0.0116987
-0.0127039
-0.0135383
-0.0141833
-0.0146241
-0.0148486
-0.0148479
-0.0146157
-0.0141482
-0.0134436
-0.0125026
-0.0113274
-0.00992208
-0.00829244
-0.00644564
-0.00439025
-0.00213609
0.000305867
0.00292356
0.00570397
0.00863314
0.0116963
0.0148781
0.0181622
0.0215319
0.02497
0.0284588
0.0319802
0.0355157
0.039047
0.0425553
0.046022
0.0494283
0.0527561
0.055987
0.0591033
0.0620879
0.0649242
0.0675964
0.0700896
0.0723899
0.0744847
0.0763626
0.0780138
0.0794301
0.080605
0.0815341
0.082215
0.0826476
0.0828344
0.0827803
0.0824931
0.0819837
0.081266
0.0803575
0.079279
0.0780551
0.0767144
0.0752896
0.0738174
0.0723386
0.0708978
0.0695431
0.0683248
0.0672935
0.0665008
0.0660148
0.0658793
0.0029859
0.00257442
0.0019229
0.00105083
-4.58531e-06
-0.00119853
-0.00248712
-0.00382808
-0.00518113
-0.00650878
-0.00777683
-0.00895462
-0.010015
-0.0109344
-0.0116925
-0.0122723
-0.0126598
-0.0128439
-0.012816
-0.0125701
-0.0121024
-0.0114111
-0.0104965
-0.00936066
-0.00800724
-0.00644147
-0.00467001
-0.00270083
-0.000543108
0.00179286
0.00429573
0.00695322
0.00975216
0.0126786
0.0157178
0.0188546
0.0220729
0.0253564
0.0286882
0.0320511
0.0354277
0.0388003
0.0421512
0.0454625
0.0487165
0.0518958
0.0549831
0.0579616
0.0608148
0.0635271
0.0660836
0.0684701
0.0706736
0.072682
0.0744849
0.0760728
0.0774383
0.0785753
0.0794799
0.0801498
0.0805853
0.0807887
0.0807649
0.0805214
0.0800684
0.0794192
0.0785899
0.0775999
0.0764718
0.0752317
0.0739089
0.0725361
0.0711492
0.0697869
0.0684903
0.0673016
0.0662642
0.0654218
0.0648156
0.064468
0.00474816
0.00405988
0.00323742
0.00227219
0.00116797
-3.81822e-05
-0.00130902
-0.00260983
-0.00390706
-0.00516887
-0.00636581
-0.00747115
-0.00846097
-0.00931422
-0.0100127
-0.010541
-0.0108864
-0.0110385
-0.0109896
-0.0107339
-0.0102679
-0.00958995
-0.00870016
-0.0076004
-0.00629409
-0.00478608
-0.0030826
-0.00119112
0.000879755
0.0031203
0.00551982
0.00806669
0.0107484
0.0135518
0.0164629
0.0194671
0.0225493
0.0256938
0.0288846
0.0321054
0.0353394
0.0385699
0.0417798
0.0449522
0.0480702
0.051117
0.0540763
0.0569319
0.0596683
0.0622705
0.0647243
0.0670162
0.0691338
0.0710658
0.0728021
0.074334
0.0756542
0.0767571
0.077639
0.0782979
0.0787339
0.0789494
0.078949
0.0787396
0.0783308
0.0777348
0.0769666
0.0760438
0.074987
0.0738196
0.0725678
0.0712605
0.0699289
0.0686063
0.0673273
0.0661272
0.065043
0.0641114
0.0633423
0.0627315
0.00673342
0.00574013
0.00471691
0.0036269
0.00243996
0.00118662
-0.000101311
-0.00139581
-0.00266931
-0.00389513
-0.00504823
-0.00610564
-0.00704655
-0.00785252
-0.00850747
-0.00899766
-0.00931167
-0.00944028
-0.00937641
-0.00911493
-0.00865261
-0.007988
-0.00712132
-0.00605435
-0.00479033
-0.00333387
-0.00169084
0.000131692
0.00212556
0.00428156
0.00658955
0.00903847
0.0116165
0.014311
0.0171087
0.0199957
0.0229576
0.0259794
0.0290459
0.0321413
0.0352497
0.038355
0.041441
0.0444914
0.04749
0.0504208
0.0532681
0.0560165
0.0586509
0.0611572
0.0635215
0.0657312
0.0677743
0.0696399
0.0713184
0.0728013
0.0740819
0.0751547
0.0760159
0.0766638
0.0770984
0.0773216
0.0773377
0.0771532
0.0767767
0.0762194
0.0754948
0.0746191
0.0736105
0.0724901
0.0712809
0.0700082
0.068699
0.0673817
0.0660852
0.0648387
0.063674
0.0626218
0.0616597
0.0607565
0.00886239
0.00755063
0.00630757
0.00506962
0.0037739
0.00244567
0.00111238
-0.00020376
-0.00148051
-0.00269579
-0.0038286
-0.00485947
-0.00577059
-0.00654603
-0.00717182
-0.00763599
-0.0079285
-0.00804127
-0.00796807
-0.00770444
-0.00724762
-0.00659645
-0.00575132
-0.00471404
-0.00348779
-0.002077
-0.000487323
0.00127451
0.0032007
0.00528247
0.00751013
0.00987315
0.0123602
0.0149593
0.0176577
0.0204422
0.0232988
0.0262134
0.0291713
0.0321573
0.0351563
0.0381527
0.041131
0.0440755
0.0469707
0.0498011
0.0525516
0.0552074
0.0577541
0.0601779
0.0624656
0.0646048
0.066584
0.0683928
0.0700217
0.0714628
0.0727091
0.0737555
0.0745982
0.0752353
0.0756666
0.0758938
0.0759205
0.0757525
0.0753977
0.074866
0.0741697
0.0733231
0.0723425
0.0712465
0.0700553
0.0687907
0.0674761
0.0661355
0.0647929
0.0634718
0.0622003
0.0610041
0.0598293
0.0586192
0.011068
0.00943388
0.00795989
0.00655782
0.0051339
0.00370932
0.00230813
0.000947564
-0.000354791
-0.00158092
-0.0027135
-0.00373624
-0.00463416
-0.00539376
-0.00600312
-0.00645199
-0.00673179
-0.00683559
-0.00675809
-0.00649556
-0.0060458
-0.00540803
-0.00458289
-0.00357233
-0.00237952
-0.00100883
0.000534263
0.00224325
0.00411064
0.00612799
0.00828601
0.0105746
0.0129829
0.0154995
0.018112
0.0208078
0.0235737
0.0263958
0.0292601
0.032152
0.035057
0.03796
0.040846
0.0437
0.0465069
0.0492518
0.0519202
0.0544975
0.0569699
0.0593241
0.0615472
0.0636271
0.0655528
0.0673139
0.0689014
0.0703072
0.0715246
0.0725484
0.0733749
0.0740017
0.0744283
0.0746562
0.0746883
0.0745296
0.0741872
0.0736698
0.0729882
0.0721551
0.071185
0.070094
0.0688997
0.067621
0.0662778
0.0648902
0.0634781
0.0620605
0.0606621
0.0593051
0.0579059
0.0563839
0.0132944
0.0113398
0.00962942
0.00805242
0.00648613
0.00494878
0.0034619
0.00203849
0.000692134
-0.000562727
-0.00171201
-0.00274237
-0.00364142
-0.00439793
-0.00500197
-0.00544497
-0.00571976
-0.00582062
-0.0057432
-0.00548455
-0.00504307
-0.00441846
-0.00361167
-0.00262483
-0.00146123
-0.000125201
0.00137786
0.0030416
0.00485874
0.00682113
0.00891981
0.011145
0.0134864
0.0159327
0.0184724
0.021093
0.0237819
0.0265257
0.0293109
0.0321235
0.0349493
0.0377738
0.0405825
0.0433607
0.046094
0.0487678
0.051368
0.0538804
0.0562917
0.0585886
0.0607588
0.0627905
0.0646726
0.066395
0.0679488
0.069326
0.0705199
0.0715251
0.0723376
0.072955
0.0733763
0.0736023
0.0736355
0.07348
0.073142
0.0726289
0.0719504
0.0711173
0.0701424
0.0690398
0.0678246
0.066513
0.0651218
0.0636681
0.0621679
0.0606364
0.0590962
0.0575668
0.0559369
0.054104
0.0154948
0.0132249
0.0112765
0.00951779
0.00779912
0.00613668
0.00455024
0.00304927
0.00164395
0.00034561
-0.000834547
-0.00188581
-0.00279818
-0.00356252
-0.00417079
-0.00461603
-0.00489247
-0.00499552
-0.00492186
-0.00466932
-0.00423697
-0.003625
-0.00283474
-0.00186857
-0.000729921
0.000576802
0.00204624
0.00367212
0.00544734
0.00736396
0.00941327
0.0115858
0.0138716
0.0162597
0.018739
0.0212974
0.0239227
0.0266021
0.0293222
0.0320697
0.0348306
0.037591
0.0403368
0.0430537
0.0457275
0.0483441
0.0508897
0.0533505
0.0557132
0.0579651
0.0600938
0.0620878
0.0639361
0.0656288
0.0671568
0.068512
0.0696878
0.0706785
0.0714799
0.0720892
0.0725049
0.0727274
0.0727582
0.0726008
0.0722603
0.0717432
0.0710577
0.0702133
0.0692208
0.0680924
0.0668412
0.065481
0.064026
0.0624905
0.0608874
0.0592287
0.0575358
0.0558263
0.0539632
0.0518236
0.0176298
0.0150516
0.0128661
0.0109217
0.00904375
0.00724716
0.00555052
0.00396042
0.00248412
0.00113028
-9.24341e-05
-0.00117567
-0.00211156
-0.00289295
-0.00351352
-0.00396783
-0.00425146
-0.00436097
-0.00429402
-0.00404926
-0.00362642
-0.00302624
-0.00225046
-0.00130175
-0.000183756
0.00109901
0.00254116
0.00413647
0.00587791
0.00775771
0.00976738
0.0118977
0.0141389
0.0164805
0.0189115
0.0214204
0.0239952
0.0266233
0.029292
0.0319882
0.0346982
0.0374086
0.0401054
0.0427749
0.045403
0.047976
0.0504802
0.0529022
0.0552288
0.0574475
0.059546
0.0615128
0.063337
0.0650087
0.0665187
0.0678589
0.0690222
0.0700029
0.0707963
0.0713993
0.0718099
0.0720277
0.0720537
0.0718905
0.0715421
0.071014
0.0703131
0.0694476
0.0684268
0.067261
0.0659613
0.0645395
0.0630077
0.0613778
0.0596601
0.0578642
0.0560107
0.0541161
0.0520196
0.0495793
0.0196661
0.0167871
0.0143667
0.0122348
0.0101931
0.00825589
0.00644107
0.00475285
0.00319605
0.00177703
0.000502265
-0.000622001
-0.00158985
-0.00239589
-0.00303541
-0.00350441
-0.00379974
-0.00391908
-0.00386104
-0.00362511
-0.00321169
-0.00262207
-0.00185843
-0.000923801
0.000177962
0.00144217
0.00286336
0.00443528
0.00615098
0.00800277
0.00998232
0.0120806
0.0142881
0.0165945
0.0189891
0.0214608
0.0239976
0.0265876
0.0292181
0.0318764
0.0345492
0.0372231
0.0398847
0.0425203
0.0451163
0.0476589
0.0501347
0.0525305
0.0548333
0.0570304
0.0591097
0.0610598
0.0628696
0.0645292
0.0660292
0.0673612
0.0685181
0.0694935
0.0702827
0.0708817
0.0712882
0.0715012
0.0715209
0.071349
0.0709884
0.0704438
0.0697208
0.0688263
0.0677682
0.0665552
0.0651967
0.0637028
0.0620837
0.0603492
0.0585079
0.0565672
0.0545474
0.0524648
0.0501361
0.0474015
0.0215748
0.0184027
0.0157504
0.0134305
0.0112224
0.00914003
0.00720112
0.00540793
0.00376321
0.00227136
0.000936937
-0.000235663
-0.00124226
-0.00207909
-0.0027429
-0.00323106
-0.00354158
-0.00367325
-0.0036256
-0.00339893
-0.00299431
-0.00241362
-0.00165947
-0.000735274
0.000354836
0.00160598
0.00301256
0.0045683
0.00626622
0.00809871
0.0100575
0.0121338
0.0143181
0.0166005
0.0189704
0.0214168
0.0239281
0.0264927
0.029098
0.0317315
0.0343804
0.0370313
0.0396711
0.0422862
0.0448631
0.0473884
0.0498487
0.0522307
0.0545217
0.0567088
0.0587801
0.0607238
0.0625291
0.0641855
0.0656835
0.0670147
0.0681714
0.0691469
0.0699358
0.0705339
0.0709382
0.0711469
0.0711596
0.0709771
0.0706015
0.0700361
0.0692857
0.0683558
0.0672532
0.0659851
0.0645596
0.0629851
0.0612702
0.0594232
0.0574511
0.0553597
0.0531697
0.0508975
0.0483384
0.0453158
0.0233311
0.0198729
0.0169922
0.0144847
0.0121087
0.00987811
0.00781085
0.00590756
0.00416923
0.00259861
0.00119857
-2.81093e-05
-0.0010788
-0.00195121
-0.00264345
-0.00315411
-0.00348238
-0.00362804
-0.00359152
-0.00337391
-0.00297696
-0.00240311
-0.00165546
-0.000737791
0.000345451
0.00158916
0.00298759
0.00453435
0.00622245
0.00804429
0.00999168
0.0120559
0.0142275
0.0164968
0.0188533
0.0212863
0.0237844
0.0263359
0.0289288
0.0315506
0.0341885
0.0368296
0.0394607
0.0420685
0.0446395
0.0471603
0.0496177
0.0519984
0.0542895
0.0564783
0.0585526
0.0605005
0.062311
0.0639734
0.065478
0.0668159
0.0679789
0.0689602
0.0697536
0.0703545
0.070759
0.0709649
0.0709709
0.070777
0.0703844
0.0697954
0.0690136
0.0680435
0.0668907
0.0655614
0.0640621
0.0624002
0.0605827
0.058617
0.0565086
0.0542623
0.0518992
0.0494364
0.0466488
0.0433439
0.0249128
0.0211749
0.0180692
0.0153751
0.0128305
0.0104498
0.00825121
0.00623407
0.0043979
0.002744
0.00127382
-1.13021e-05
-0.00111014
-0.00202171
-0.00274538
-0.00328092
-0.00362857
-0.00378906
-0.0037637
-0.00355434
-0.00316339
-0.00259385
-0.00184931
-0.000933963
0.000147431
0.00138952
0.00278636
0.00433145
0.00601772
0.00783755
0.00978276
0.0118447
0.014014
0.016281
0.0186355
0.0210667
0.0235636
0.0261145
0.0287075
0.0313303
0.0339702
0.0366145
0.03925
0.0418634
0.0444414
0.0469706
0.0494377
0.0518294
0.0541326
0.0563347
0.0584231
0.060386
0.0622117
0.0638896
0.0654094
0.0667619
0.0679385
0.0689317
0.069735
0.0703428
0.070751
0.0709563
0.0709568
0.0707516
0.0703412
0.0697268
0.0689109
0.0678972
0.0666901
0.0652946
0.0637165
0.0619617
0.0600365
0.0579471
0.0556981
0.0532934
0.0507552
0.0481012
0.045087
0.0415045
0.0263001
0.0222881
0.0189604
0.0160809
0.0133677
0.0108357
0.00850387
0.00637024
0.00443317
0.00269273
0.0011491
-0.000197632
-0.0013475
-0.00230073
-0.00305784
-0.00361968
-0.00398747
-0.00416287
-0.00414801
-0.00394546
-0.0035583
-0.00299008
-0.0022449
-0.00132733
-0.000242497
0.00100398
0.00240597
0.00395679
0.0056493
0.00747579
0.00942808
0.0114975
0.0136748
0.0159503
0.0183139
0.020755
0.0232625
0.025825
0.0284305
0.031067
0.0337218
0.0363821
0.0390349
0.0416669
0.0442648
0.0468152
0.0493046
0.0517196
0.0540472
0.0562742
0.0583882
0.0603767
0.0622281
0.0639312
0.0654753
0.0668507
0.0680485
0.0690604
0.0698794
0.0704994
0.0709152
0.0711231
0.0711202
0.0709049
0.0704768
0.0698363
0.068985
0.0679253
0.0666609
0.0651959
0.0635349
0.0616832
0.0596462
0.0574293
0.0550362
0.0524707
0.0497556
0.04691
0.0436705
0.0398139
0.0274748
0.0231933
0.0196465
0.0165828
0.0137013
0.0110175
0.00855104
0.00629919
0.00425914
0.00242992
0.000810599
-0.000599873
-0.00180265
-0.00279906
-0.00359068
-0.00417936
-0.00456726
-0.00475691
-0.0047512
-0.00455344
-0.00416732
-0.00359697
-0.00284697
-0.00192231
-0.000828456
0.000428677
0.00184272
0.00340684
0.00511373
0.00695563
0.0089243
0.011011
0.0132066
0.0155014
0.0178852
0.0203477
0.0228777
0.0254638
0.0280943
0.030757
0.0334393
0.0361285
0.0388116
0.0414751
0.0441058
0.0466901
0.0492144
0.0516653
0.0540294
0.0562934
0.0584444
0.0604698
0.0623575
0.0640958
0.0656737
0.067081
0.068308
0.069346
0.0701873
0.070825
0.0712535
0.0714679
0.0714647
0.0712415
0.0707969
0.0701306
0.0692434
0.0681367
0.0668132
0.0652763
0.0635298
0.0615781
0.0594261
0.0570787
0.054539
0.0518103
0.0489169
0.0458792
0.0424152
0.0382867
0.0284199
0.0238726
0.020109
0.0168623
0.0138129
0.0109771
0.00837544
0.0060043
0.00386
0.00194062
0.000244257
-0.00123116
-0.00248782
-0.00352805
-0.0043544
-0.00496967
-0.00537689
-0.0055794
-0.00558087
-0.00538527
-0.00499693
-0.00442052
-0.00366111
-0.00272412
-0.00161536
-0.000341057
0.00109218
0.00267732
0.00440691
0.00627306
0.00826745
0.0103813
0.0126055
0.0149302
0.0173455
0.0198408
0.022405
0.0250269
0.0276947
0.0303961
0.0331188
0.0358497
0.0385759
0.0412839
0.0439603
0.0465914
0.0491635
0.0516628
0.0540758
0.0563889
0.0585887
0.0606624
0.0625974
0.0643815
0.0660033
0.0674517
0.0687167
0.0697888
0.0706597
0.0713217
0.0717684
0.0719942
0.0719947
0.0717666
0.0713078
0.0706172
0.0696945
0.0685407
0.0671574
0.0655472
0.0637134
0.0616597
0.0593905
0.0569101
0.0542216
0.0513279
0.0482548
0.0450241
0.0413356
0.0369363
0.0291194
0.0243091
0.0203303
0.0169016
0.0136848
0.0106972
0.00796005
0.00546914
0.00321996
0.00120977
-0.000564218
-0.002105
-0.0034157
-0.00449959
-0.00536013
-0.00600097
-0.006426
-0.00663934
-0.00664537
-0.00644874
-0.00605439
-0.00546753
-0.0046937
-0.00373876
-0.00260888
-0.0013106
0.000149206
0.00176329
0.00352404
0.00542341
0.007453
0.00960396
0.011867
0.0142325
0.0166904
0.0192299
0.0218403
0.0245101
0.0272274
0.0299802
0.0327558
0.0355413
0.0383236
0.0410891
0.0438243
0.0465152
0.049148
0.0517086
0.0541831
0.0565576
0.0588185
0.0609523
0.062946
0.0647869
0.0664629
0.0679625
0.0692748
0.0703898
0.0712982
0.0719917
0.0724631
0.072706
0.0727151
0.0724863
0.0720165
0.0713039
0.0703475
0.0691473
0.0677043
0.0660205
0.0640985
0.0619414
0.0595533
0.0569383
0.0540991
0.0510387
0.0477844
0.0443595
0.0404457
0.0357753
0.0295577
0.0244861
0.0202934
0.0166835
0.0132999
0.0101606
0.00728806
0.00467733
0.00232317
0.000222128
-0.0016294
-0.00323526
-0.00459945
-0.00572611
-0.00661955
-0.00728426
-0.00772493
-0.00794641
-0.00795379
-0.00775238
-0.00734769
-0.0067455
-0.00595182
-0.00497293
-0.00381538
-0.00248602
-0.00099201
0.00065918
0.00245973
0.00440146
0.00647583
0.00867391
0.0109864
0.0134034
0.015915
0.0185104
0.0211787
0.0239085
0.0266878
0.0295045
0.0323458
0.0351989
0.0380503
0.0408865
0.0436936
0.0464575
0.0491641
0.051799
0.054348
0.0567967
0.0591312
0.0613373
0.0634017
0.0653109
0.0670522
0.0686135
0.0699831
0.0711503
0.0721051
0.0728382
0.0733416
0.0736081
0.0736316
0.0734071
0.0729305
0.0721993
0.0712116
0.0699669
0.0684654
0.0667083
0.0646979
0.0624368
0.0599287
0.0571777
0.0541863
0.0509574
0.0475202
0.0438996
0.0397589
0.0348158
0.0297195
0.0243875
0.0199818
0.0161911
0.012641
0.00935045
0.00634272
0.00361244
0.00115367
-0.00103775
-0.00296615
-0.00463618
-0.00605265
-0.00722053
-0.00814493
-0.00883115
-0.00928462
-0.00951094
-0.00951588
-0.00930538
-0.00888554
-0.00826267
-0.00744326
-0.00643402
-0.00524189
-0.00387403
-0.00233789
-0.000641204
0.00120801
0.00320142
0.00533032
0.00758568
0.00995806
0.0124377
0.0150142
0.0176771
0.0204152
0.0232171
0.0260709
0.0289641
0.0318841
0.0348177
0.0377515
0.0406716
0.043564
0.0464143
0.0492081
0.0519306
0.0545673
0.0571034
0.0595243
0.0618155
0.0639629
0.0659525
0.0677708
0.069405
0.0708428
0.0720724
0.0730831
0.0738648
0.0744084
0.074706
0.0747505
0.0745361
0.074058
0.0733124
0.072297
0.0710104
0.0694523
0.0676232
0.0655249
0.0631598
0.0605312
0.0576431
0.054498
0.051099
0.0474769
0.0436584
0.0392886
0.0340699
0.0295896
0.0239974
0.0193786
0.0154075
0.0116912
0.00824964
0.00510718
0.00225792
-0.00030475
-0.00258562
-0.00458971
-0.00632244
-0.00778938
-0.00899629
-0.00994909
-0.0106538
-0.0111167
-0.0113439
-0.011342
-0.0111176
-0.0106773
-0.0100279
-0.00917643
-0.00813004
-0.00689603
-0.00548192
-0.00389544
-0.00214459
-0.000237608
0.00181699
0.00401035
0.0063333
0.0087763
0.0113294
0.0139824
0.0167244
0.0195444
0.0224308
0.0253714
0.028354
0.0313656
0.0343929
0.0374224
0.0404399
0.0434311
0.0463815
0.0492761
0.0521
0.054838
0.0574749
0.0599956
0.0623851
0.0646285
0.0667112
0.0686189
0.070338
0.0718553
0.0731583
0.0742353
0.0750753
0.0756684
0.0760055
0.0760788
0.0758814
0.0754076
0.0746531
0.0736144
0.0722895
0.0706775
0.0687784
0.0665934
0.0641247
0.0613755
0.0583496
0.0550495
0.0514785
0.0476694
0.0436504
0.0390481
0.0335497
0.0291526
0.0232995
0.0184674
0.0143157
0.0104333
0.00684109
0.00356444
0.000596965
-0.00206857
-0.00443755
-0.00651569
-0.00830911
-0.00982416
-0.0110674
-0.0120454
-0.012765
-0.0132332
-0.0134569
-0.0134433
-0.0131995
-0.0127328
-0.0120506
-0.0111603
-0.0100696
-0.008786
-0.00731753
-0.0056722
-0.00385824
-0.00188413
0.000241394
0.00250933
0.00491037
0.00743483
0.0100727
0.0128135
0.0156466
0.0185605
0.0215437
0.024584
0.0276688
0.0307851
0.0339195
0.0370581
0.0401866
0.0432905
0.0463548
0.0493643
0.0523035
0.0551569
0.0579086
0.0605431
0.0630445
0.0653975
0.0675866
0.0695968
0.0714135
0.0730226
0.0744109
0.0755655
0.0764745
0.0771271
0.0775131
0.0776237
0.0774512
0.0769889
0.0762315
0.0751749
0.0738162
0.0721539
0.0701875
0.0679177
0.0653465
0.0624768
0.0593125
0.0558562
0.0521114
0.0481126
0.0438901
0.0390513
0.0332679
0.0283929
0.0222775
0.0172313
0.0128986
0.00884999
0.00510739
0.00169716
-0.00138757
-0.00415464
-0.00661005
-0.00876015
-0.0106118
-0.0121721
-0.0134482
-0.0144477
-0.0151781
-0.015647
-0.0158621
-0.0158313
-0.0155622
-0.0150628
-0.0143409
-0.0134045
-0.0122617
-0.0109205
-0.00938924
-0.00767617
-0.00578985
-0.003739
-0.00153255
0.000820308
0.00331011
0.00592705
0.00866098
0.0115014
0.0144373
0.0174574
0.02055
0.0237026
0.0269027
0.0301371
0.033392
0.0366535
0.039907
0.0431376
0.04633
0.0494687
0.0525376
0.0555208
0.0584018
0.0611644
0.0637922
0.066269
0.0685785
0.0707049
0.0726327
0.074347
0.0758331
0.0770776
0.0780674
0.0787905
0.0792358
0.0793935
0.0792548
0.078812
0.0780589
0.0769906
0.0756035
0.0738952
0.0718649
0.0695128
0.0668406
0.063851
0.0605481
0.0569344
0.0530137
0.0488224
0.0443927
0.0393125
0.0332378
0.0272945
0.0209147
0.0156529
0.0111386
0.00692355
0.00303076
-0.000512386
-0.00371325
-0.00658028
-0.00912008
-0.0113397
-0.0132466
-0.0148486
-0.0161539
-0.0171706
-0.017907
-0.0183714
-0.0185723
-0.0185181
-0.0182172
-0.0176781
-0.0169093
-0.0159191
-0.0147161
-0.0133088
-0.0117058
-0.0099158
-0.00794755
-0.00581004
-0.00351242
-0.00106407
0.00152539
0.00424601
0.00708752
0.0100393
0.0130902
0.0162289
0.0194435
0.0227215
0.0260501
0.0294159
0.0328051
0.0362034
0.039596
0.0429676
0.0463027
0.0495852
0.0527987
0.0559266
0.0589519
0.0618577
0.0646268
0.0672422
0.0696869
0.0719442
0.0739975
0.0758308
0.0774286
0.0787761
0.0798593
0.0806651
0.0811813
0.0813967
0.0813017
0.0808875
0.080147
0.0790743
0.0776649
0.075916
0.0738259
0.0713947
0.0686234
0.065515
0.0620733
0.0583011
0.0542023
0.0498153
0.0451743
0.0398472
0.0334733
0.0258407
0.0191936
0.0137145
0.00901757
0.00463573
0.00059291
-0.00308243
-0.00639815
-0.00936333
-0.0119852
-0.0142713
-0.0162301
-0.0178701
-0.0192001
-0.0202291
-0.0209661
-0.0214202
-0.0216006
-0.0215164
-0.0211767
-0.0205904
-0.0197667
-0.0187146
-0.0174428
-0.0159605
-0.0142765
-0.0123999
-0.0103398
-0.00810543
-0.00570611
-0.00315144
-0.000451202
0.00238451
0.00534529
0.00842038
0.0115986
0.0148684
0.0182178
0.0216342
0.0251047
0.0286156
0.032153
0.0357023
0.0392484
0.0427758
0.0462684
0.0497098
0.0530831
0.0563711
0.0595562
0.0626207
0.0655468
0.0683165
0.0709119
0.0733154
0.0755094
0.0774768
0.0792009
0.0806659
0.0818563
0.082758
0.0833575
0.0836426
0.0836023
0.083227
0.0825082
0.0814393
0.0800149
0.0782314
0.0760866
0.0735799
0.0707122
0.0674863
0.063906
0.0599741
0.0556949
0.0511088
0.0462519
0.0406713
0.0339897
0.0240142
0.0170964
0.0113978
0.00651695
0.00196771
-0.00222505
-0.00603183
-0.00946098
-0.0125222
-0.0152234
-0.0175729
-0.0195797
-0.0212532
-0.022603
-0.0236388
-0.0243705
-0.0248079
-0.024961
-0.0248395
-0.0244532
-0.0238117
-0.0229248
-0.0218018
-0.0204522
-0.0188854
-0.0171108
-0.0151376
-0.0129754
-0.0106336
-0.00812175
-0.00544966
-0.00262729
0.000335133
0.00342708
0.00663767
0.00995564
0.0133693
0.0168665
0.0204346
0.0240604
0.0277303
0.03143
0.0351447
0.038859
0.042557
0.0462224
0.0498381
0.0533869
0.0568509
0.0602119
0.0634514
0.0665508
0.0694912
0.0722538
0.0748198
0.0771706
0.0792881
0.0811543
0.0827519
0.0840645
0.0850765
0.0857731
0.086141
0.0861677
0.0858425
0.0851559
0.0841001
0.0826689
0.0808578
0.0786639
0.0760863
0.0731253
0.0697836
0.0660651
0.0619725
0.0575105
0.0527216
0.0476437
0.0418026
0.0348034
0.0217969
0.0146044
0.00868358
0.00361732
-0.00110007
-0.00544275
-0.00938014
-0.0129212
-0.0160762
-0.0188537
-0.0212628
-0.0233133
-0.0250154
-0.0263794
-0.0274159
-0.0281357
-0.0285494
-0.0286676
-0.0285009
-0.0280598
-0.0273545
-0.0263952
-0.0251921
-0.0237551
-0.022094
-0.0202185
-0.0181384
-0.0158633
-0.0134032
-0.0107677
-0.00796677
-0.00501065
-0.00190966
0.00132554
0.00468398
0.00815428
0.0117246
0.0153828
0.019116
0.022911
0.0267538
0.0306302
0.0345249
0.0384224
0.0423063
0.04616
0.049966
0.0537064
0.0573628
0.0609163
0.0643477
0.0676374
0.0707657
0.0737126
0.0764584
0.0789833
0.0812679
0.0832929
0.0850398
0.0864907
0.0876286
0.0884374
0.0889023
0.0890096
0.0887471
0.0881042
0.087072
0.0856433
0.0838125
0.0815762
0.0789328
0.0758823
0.0724271
0.068571
0.0643169
0.0596695
0.0546736
0.0493692
0.0432597
0.0359322
0.01917
0.0116981
0.00555195
0.000298449
-0.00458801
-0.00908063
-0.0131478
-0.0167989
-0.0200451
-0.0228956
-0.0253602
-0.0274496
-0.0291747
-0.0305468
-0.0315774
-0.0322781
-0.0326602
-0.0327354
-0.0325149
-0.0320099
-0.0312314
-0.0301903
-0.0288971
-0.0273624
-0.0255965
-0.0236095
-0.0214116
-0.0190127
-0.0164229
-0.0136522
-0.0107109
-0.00760913
-0.00435749
-0.000966712
0.00255211
0.00618752
0.00992763
0.0137601
0.017672
0.02165
0.02568
0.0297475
0.0338371
0.037933
0.0420185
0.0460764
0.0500889
0.0540376
0.0579033
0.0616666
0.0653074
0.0688052
0.0721393
0.0752888
0.0782326
0.0809498
0.0834196
0.0856214
0.0875353
0.089142
0.0904227
0.09136
0.0919376
0.0921403
0.0919544
0.0913682
0.0903713
0.0889554
0.087114
0.0848429
0.0821397
0.0790041
0.075438
0.0714453
0.0670289
0.0621937
0.0569866
0.0514497
0.0450632
0.0373954
0.0161135
0.00835697
0.00198195
-0.00346087
-0.00851747
-0.0131601
-0.017356
-0.0211154
-0.0244499
-0.0273697
-0.0298852
-0.032008
-0.03375
-0.0351235
-0.0361407
-0.0368142
-0.0371564
-0.0371796
-0.0368959
-0.0363174
-0.0354557
-0.0343223
-0.0329285
-0.0312854
-0.0294037
-0.0272941
-0.0249669
-0.0224326
-0.0197015
-0.0167839
-0.0136901
-0.0104305
-0.00701589
-0.00345702
0.00023491
0.00404838
0.00797144
0.0119916
0.016096
0.0202711
0.0245027
0.028776
0.0330757
0.0373854
0.0416883
0.0459667
0.0502024
0.0543764
0.058469
0.06246
0.0663284
0.0700528
0.0736116
0.0769826
0.0801437
0.0830725
0.0857468
0.0881447
0.0902447
0.0920257
0.0934677
0.0945513
0.0952587
0.095573
0.0954792
0.0949638
0.0940152
0.0926238
0.0907821
0.0884847
0.0857286
0.082513
0.0788394
0.0747116
0.0701323
0.0651066
0.0596838
0.053908
0.0472352
0.0392143
0.0126065
0.00455941
-0.00204842
-0.00768291
-0.0129109
-0.0177036
-0.0220273
-0.0258927
-0.0293124
-0.0322972
-0.0348585
-0.0370088
-0.0387609
-0.0401282
-0.0411239
-0.0417615
-0.0420544
-0.0420159
-0.0416589
-0.0409963
-0.0400406
-0.0388039
-0.0372983
-0.0355353
-0.0335262
-0.0312821
-0.0288139
-0.0261322
-0.0232477
-0.0201709
-0.0169123
-0.0134825
-0.0098923
-0.00615259
-0.00227462
0.00173004
0.00584939
0.010071
0.0143817
0.018768
0.0232157
0.0277098
0.0322348
0.0367741
0.0413106
0.0458262
0.0503022
0.054719
0.0590565
0.0632935
0.0674083
0.0713787
0.0751819
0.0787945
0.0821931
0.0853539
0.0882534
0.0908679
0.0931743
0.0951499
0.0967729
0.0980222
0.098878
0.0993218
0.0993369
0.0989081
0.0980222
0.0966684
0.0948377
0.0925239
0.0897229
0.0864332
0.082656
0.0783948
0.0736523
0.0684337
0.0627905
0.056769
0.0498
0.041412
0.00862696
0.000282667
-0.00656238
-0.0123912
-0.0177919
-0.0227348
-0.0271851
-0.0311541
-0.0346554
-0.0377006
-0.040302
-0.0424731
-0.0442279
-0.0455807
-0.0465458
-0.0471379
-0.0473714
-0.0472604
-0.0468191
-0.0460611
-0.0449997
-0.0436479
-0.0420183
-0.0401232
-0.0379745
-0.0355836
-0.0329619
-0.0301204
-0.0270699
-0.0238214
-0.0203853
-0.0167725
-0.0129939
-0.00906034
-0.00498322
-0.00077409
0.00355505
0.0079917
0.0125228
0.0171348
0.0218132
0.0265432
0.0313089
0.0360937
0.0408801
0.0456499
0.0503836
0.0550613
0.0596621
0.0641643
0.0685452
0.0727816
0.0768496
0.0807248
0.0843822
0.0877967
0.0909431
0.0937961
0.0963309
0.0985228
0.100348
0.101784
0.102809
0.103401
0.103544
0.103219
0.102412
0.10111
0.0993035
0.0969842
0.0941473
0.0907905
0.0869144
0.0825223
0.0776166
0.0722026
0.0663342
0.0600599
0.0527841
0.044014
0.00415142
-0.00449731
-0.0115845
-0.0176105
-0.0231855
-0.0282787
-0.0328542
-0.0369242
-0.0405032
-0.0436034
-0.0462386
-0.0484231
-0.0501722
-0.0515012
-0.0524259
-0.0529618
-0.0531247
-0.0529297
-0.052392
-0.0515262
-0.0503466
-0.0488669
-0.0471005
-0.0450604
-0.042759
-0.0402083
-0.03742
-0.0344056
-0.0311762
-0.0277428
-0.0241163
-0.0203075
-0.0163273
-0.0121868
-0.00789722
-0.00347019
0.00108234
0.00574792
0.0105135
0.0153655
0.0202895
0.0252705
0.0302926
0.035339
0.040392
0.045433
0.0504423
0.0553993
0.0602825
0.0650694
0.0697367
0.07426
0.0786143
0.0827739
0.0867126
0.0904037
0.0938201
0.096935
0.0997215
0.102153
0.104204
0.105849
0.107064
0.107828
0.108118
0.107916
0.107206
0.105972
0.104204
0.101891
0.0990288
0.0956129
0.0916435
0.0871234
0.0820549
0.0764432
0.0703447
0.0638101
0.0562161
0.0470479
-0.000844814
-0.00980601
-0.0171407
-0.0233672
-0.0291181
-0.0343617
-0.039061
-0.0432289
-0.046881
-0.0500305
-0.0526923
-0.054882
-0.056616
-0.0579111
-0.0587842
-0.0592523
-0.0593323
-0.0590405
-0.0583933
-0.0574063
-0.0560949
-0.0544736
-0.0525566
-0.0503577
-0.0478897
-0.0451655
-0.042197
-0.0389961
-0.0355742
-0.0319425
-0.0281121
-0.0240938
-0.0198987
-0.0155378
-0.0110224
-0.00636391
-0.00157428
0.00333414
0.0083484
0.0134549
0.0186394
0.0238866
0.0291808
0.034505
0.0398414
0.0451711
0.050474
0.0557291
0.0609142
0.0660061
0.0709806
0.0758124
0.0804754
0.0849425
0.089186
0.0931776
0.0968886
0.10029
0.103353
0.10605
0.108351
0.11023
0.11166
0.112617
0.113077
0.11302
0.112426
0.111278
0.109564
0.107273
0.104396
0.10093
0.0968742
0.09223
0.0869995
0.0811881
0.0748545
0.0680518
0.0601276
0.0505442
-0.00638797
-0.0156705
-0.0232588
-0.0296892
-0.0356179
-0.0410119
-0.0458332
-0.0500956
-0.0538157
-0.057008