/*--------------------------------*- C++ -*----------------------------------*\
  =========                 |
  \\      /  F ield         | OpenFOAM: The Open Source CFD Toolbox
   \\    /   O peration     | Website:  https://openfoam.org
    \\  /    A nd           | Version:  7
     \\/     M anipulation  |
\*---------------------------------------------------------------------------*/
FoamFile
{
    version     2.0;
    format      ascii;
    class       surfaceScalarField;
    location    "0.325";
    object      phi;
}
// * * * * * * * * * * * * * * * * * * * * * * * * * * * * * * * * * * * * * //

dimensions      [0 3 -1 0 0 0 0];

internalField   nonuniform List<scalar> 
12640
(
1.88925e-10
-1.92117e-10
5.55502e-10
-3.66579e-10
8.82878e-10
-3.2735e-10
1.04591e-09
-1.63027e-10
9.82515e-10
6.33865e-11
6.65626e-10
3.16873e-10
8.83865e-11
5.77231e-10
-7.44098e-10
8.32491e-10
-1.81964e-09
1.07555e-09
-3.12177e-09
1.30214e-09
-4.63151e-09
1.50974e-09
-6.32838e-09
1.69686e-09
-8.19115e-09
1.86276e-09
-1.01983e-08
2.00713e-09
-1.23282e-08
2.12999e-09
-1.45598e-08
2.23157e-09
-1.68721e-08
2.31229e-09
-1.92448e-08
2.37267e-09
-2.16581e-08
2.41334e-09
-2.4093e-08
2.43496e-09
-2.65313e-08
2.43827e-09
-2.89553e-08
2.42402e-09
-3.13483e-08
2.39301e-09
-3.36944e-08
2.34603e-09
-3.59783e-08
2.2839e-09
-3.81857e-08
2.20745e-09
-4.03032e-08
2.1175e-09
-4.23181e-08
2.0149e-09
-4.42186e-08
1.90048e-09
-4.59937e-08
1.77509e-09
-4.76333e-08
1.63958e-09
-4.91281e-08
1.4948e-09
-5.04697e-08
1.34161e-09
-5.16505e-08
1.18089e-09
-5.2664e-08
1.0135e-09
-5.35044e-08
8.40344e-10
-5.41667e-08
6.62314e-10
-5.4647e-08
4.80329e-10
-5.49423e-08
2.95317e-10
-5.50505e-08
1.08226e-10
-5.49706e-08
-7.99803e-11
-5.47022e-08
-2.6832e-10
-5.42465e-08
-4.55792e-10
-5.36051e-08
-6.41375e-10
-5.2781e-08
-8.24034e-10
-5.17783e-08
-1.00272e-09
-5.0602e-08
-1.17637e-09
-4.92581e-08
-1.3439e-09
-4.77538e-08
-1.50423e-09
-4.60976e-08
-1.65626e-09
-4.42987e-08
-1.79889e-09
-4.23676e-08
-1.93105e-09
-4.0316e-08
-2.05164e-09
-3.81564e-08
-2.15961e-09
-3.59025e-08
-2.25389e-09
-3.3569e-08
-2.33347e-09
-3.11716e-08
-2.39736e-09
-2.8727e-08
-2.44462e-09
-2.62527e-08
-2.47434e-09
-2.3767e-08
-2.4857e-09
-2.12891e-08
-2.47791e-09
-1.88388e-08
-2.45028e-09
-1.64366e-08
-2.4022e-09
-1.41034e-08
-2.33319e-09
-1.18606e-08
-2.24287e-09
-9.72957e-09
-2.13099e-09
-7.73208e-09
-1.9975e-09
-5.88956e-09
-1.84253e-09
-4.22307e-09
-1.66649e-09
-2.7529e-09
-1.47017e-09
-1.49806e-09
-1.25482e-09
-4.756e-10
-1.02245e-09
3.00487e-10
-7.76101e-10
8.20985e-10
-5.20536e-10
1.08429e-09
-2.63325e-10
1.10115e-09
-1.68379e-11
9.02657e-10
1.98556e-10
5.54534e-10
3.48137e-10
1.83967e-10
3.70488e-10
1.83877e-10
3.65325e-10
-5.57446e-10
8.86117e-10
-8.87342e-10
1.2171e-09
-6.58322e-10
1.1352e-09
-8.11375e-11
5.02782e-10
6.9578e-10
-7.53952e-10
1.57359e-09
-2.66416e-09
2.48745e-09
-5.22679e-09
3.39513e-09
-8.4204e-09
4.26918e-09
-1.221e-08
5.09172e-09
-1.65514e-08
5.85118e-09
-2.13948e-08
6.54021e-09
-2.66864e-08
7.15439e-09
-3.23706e-08
7.69131e-09
-3.83905e-08
8.14999e-09
-4.46895e-08
8.53053e-09
-5.1211e-08
8.83379e-09
-5.78995e-08
9.06124e-09
-6.4701e-08
9.21476e-09
-7.15626e-08
9.29657e-09
-7.84334e-08
9.30914e-09
-8.52645e-08
9.25513e-09
-9.20089e-08
9.13733e-09
-9.86215e-08
8.95867e-09
-1.0506e-07
8.72215e-09
-1.11283e-07
8.43083e-09
-1.17253e-07
8.08783e-09
-1.22935e-07
7.6963e-09
-1.28294e-07
7.25942e-09
-1.33299e-07
6.78043e-09
-1.37922e-07
6.26257e-09
-1.42137e-07
5.70913e-09
-1.45918e-07
5.12341e-09
-1.49246e-07
4.50877e-09
-1.52101e-07
3.86859e-09
-1.54467e-07
3.20632e-09
-1.5633e-07
2.52544e-09
-1.57679e-07
1.82948e-09
-1.58506e-07
1.12205e-09
-1.58805e-07
4.06802e-10
-1.58572e-07
-3.12543e-10
-1.57808e-07
-1.03219e-09
-1.56516e-07
-1.7483e-09
-1.547e-07
-2.45695e-09
-1.5237e-07
-3.15417e-09
-1.49537e-07
-3.83593e-09
-1.46215e-07
-4.49816e-09
-1.42422e-07
-5.13675e-09
-1.38179e-07
-5.74756e-09
-1.33509e-07
-6.32644e-09
-1.28438e-07
-6.86926e-09
-1.22998e-07
-7.37188e-09
-1.17219e-07
-7.83024e-09
-1.11138e-07
-8.24032e-09
-1.04794e-07
-8.5982e-09
-9.82273e-08
-8.90007e-09
-9.14824e-08
-9.14227e-09
-8.46057e-08
-9.32133e-09
-7.76461e-08
-9.43397e-09
-7.06546e-08
-9.47716e-09
-6.36844e-08
-9.44816e-09
-5.67901e-08
-9.34459e-09
-5.00279e-08
-9.16442e-09
-4.3455e-08
-8.90611e-09
-3.71293e-08
-8.5686e-09
-3.11088e-08
-8.15151e-09
-2.54511e-08
-7.65517e-09
-2.02127e-08
-7.08089e-09
-1.5448e-08
-6.43117e-09
-1.12081e-08
-5.71006e-09
-7.53925e-09
-4.92371e-09
-4.48053e-09
-4.08118e-09
-2.06087e-09
-3.19576e-09
-2.94484e-10
-2.28691e-09
8.25597e-10
-1.3834e-09
1.33704e-09
-5.28279e-10
1.32188e-09
2.13751e-10
9.2444e-10
7.45688e-10
3.70644e-10
9.2442e-10
5.54468e-10
3.30023e-10
-8.87448e-10
6.65977e-10
-1.22329e-09
6.13069e-10
-6.05434e-10
-8.97167e-11
6.21623e-10
-1.61323e-09
2.21928e-09
-4.05669e-09
4.01706e-09
-7.4645e-09
5.89528e-09
-1.18407e-08
7.7713e-09
-1.71598e-08
9.58833e-09
-2.33755e-08
1.13074e-08
-3.04265e-08
1.29022e-08
-3.82412e-08
1.43549e-08
-4.67412e-08
1.56543e-08
-5.58434e-08
1.67935e-08
-6.54624e-08
1.77691e-08
-7.55119e-08
1.858e-08
-8.59051e-08
1.92271e-08
-9.65565e-08
1.97126e-08
-1.07382e-07
2.00401e-08
-1.18299e-07
2.02137e-08
-1.29228e-07
2.02383e-08
-1.40092e-07
2.01192e-08
-1.50817e-07
1.98622e-08
-1.61332e-07
1.94734e-08
-1.71569e-07
1.89591e-08
-1.81464e-07
1.83258e-08
-1.90956e-07
1.75802e-08
-1.99989e-07
1.6729e-08
-2.08508e-07
1.5779e-08
-2.16465e-07
1.47374e-08
-2.23814e-07
1.36111e-08
-2.30512e-07
1.24073e-08
-2.36522e-07
1.11332e-08
-2.41809e-07
9.79612e-09
-2.46344e-07
8.40349e-09
-2.50101e-07
6.96282e-09
-2.53057e-07
5.48174e-09
-2.55195e-07
3.968e-09
-2.56503e-07
2.42947e-09
-2.5697e-07
8.74164e-10
-2.56593e-07
-6.89793e-10
-2.55371e-07
-2.25412e-09
-2.53309e-07
-3.81043e-09
-2.50416e-07
-5.35017e-09
-2.46705e-07
-6.8647e-09
-2.42196e-07
-8.34526e-09
-2.36911e-07
-9.78302e-09
-2.30879e-07
-1.1169e-08
-2.24132e-07
-1.24944e-08
-2.16708e-07
-1.37501e-08
-2.0865e-07
-1.49272e-08
-2.00005e-07
-1.60169e-08
-1.90825e-07
-1.70104e-08
-1.81166e-07
-1.78991e-08
-1.7109e-07
-1.86745e-08
-1.60661e-07
-1.93287e-08
-1.4995e-07
-1.98539e-08
-1.39028e-07
-2.02426e-08
-1.27974e-07
-2.04882e-08
-1.16867e-07
-2.05841e-08
-1.0579e-07
-2.0525e-08
-9.48289e-08
-2.0306e-08
-8.40702e-08
-1.99231e-08
-7.36028e-08
-1.93735e-08
-6.35158e-08
-1.86556e-08
-5.3898e-08
-1.77694e-08
-4.48368e-08
-1.67163e-08
-3.64173e-08
-1.55004e-08
-2.87204e-08
-1.41281e-08
-2.18207e-08
-1.26097e-08
-1.57845e-08
-1.09599e-08
-1.06658e-08
-9.19984e-09
-6.50234e-09
-7.3592e-09
-3.30939e-09
-5.47987e-09
-1.07184e-09
-3.62098e-09
2.66184e-10
-1.86635e-09
8.14862e-10
-3.35014e-10
7.54204e-10
8.06269e-10
3.50942e-10
1.32777e-09
9.05432e-10
1.7171e-10
-1.05915e-09
1.04494e-10
-1.15608e-09
-5.88281e-10
8.73195e-11
-2.17052e-09
2.20384e-09
-4.81932e-09
4.86807e-09
-8.64101e-09
7.83876e-09
-1.3685e-08
1.09393e-08
-1.99562e-08
1.40425e-08
-2.74253e-08
1.70574e-08
-3.60371e-08
1.99193e-08
-4.57174e-08
2.25824e-08
-5.63777e-08
2.50153e-08
-6.792e-08
2.71967e-08
-8.02395e-08
2.9113e-08
-9.32272e-08
3.07567e-08
-1.06772e-07
3.21244e-08
-1.20761e-07
3.32163e-08
-1.35083e-07
3.40351e-08
-1.49629e-07
3.45857e-08
-1.6429e-07
3.48744e-08
-1.7896e-07
3.49088e-08
-1.93539e-07
3.46976e-08
-2.07927e-07
3.42504e-08
-2.2203e-07
3.35769e-08
-2.35759e-07
3.2688e-08
-2.49028e-07
3.15944e-08
-2.61755e-07
3.03074e-08
-2.73865e-07
2.88387e-08
-2.85285e-07
2.71998e-08
-2.95951e-07
2.54028e-08
-3.058e-07
2.34598e-08
-3.14775e-07
2.13832e-08
-3.22828e-07
1.91853e-08
-3.2991e-07
1.68789e-08
-3.35984e-07
1.44768e-08
-3.41013e-07
1.19919e-08
-3.44968e-07
9.43754e-09
-3.47828e-07
6.82708e-09
-3.49572e-07
4.17416e-09
-3.50191e-07
1.49263e-09
-3.49677e-07
-1.20343e-09
-3.48031e-07
-3.89973e-09
-3.4526e-07
-6.58175e-09
-3.41376e-07
-9.23477e-09
-3.36396e-07
-1.18439e-08
-3.30348e-07
-1.4394e-08
-3.23261e-07
-1.68699e-08
-3.15173e-07
-1.92563e-08
-3.0613e-07
-2.15379e-08
-2.96181e-07
-2.36992e-08
-2.85383e-07
-2.5725e-08
-2.738e-07
-2.76002e-08
-2.61501e-07
-2.93097e-08
-2.4856e-07
-3.08391e-08
-2.35061e-07
-3.21741e-08
-2.21089e-07
-3.3301e-08
-2.06736e-07
-3.42067e-08
-1.92099e-07
-3.4879e-08
-1.77281e-07
-3.53063e-08
-1.62387e-07
-3.54784e-08
-1.47526e-07
-3.53862e-08
-1.3281e-07
-3.50219e-08
-1.18354e-07
-3.43794e-08
-1.04272e-07
-3.34548e-08
-9.0682e-08
-3.2246e-08
-7.76975e-08
-3.07539e-08
-6.54312e-08
-2.89826e-08
-5.39916e-08
-2.69399e-08
-4.34811e-08
-2.46387e-08
-3.3993e-08
-2.20978e-08
-2.56091e-08
-1.93438e-08
-1.83949e-08
-1.6414e-08
-1.2395e-08
-1.33591e-08
-7.62661e-09
-1.02483e-08
-4.07146e-09
-7.17609e-09
-1.6664e-09
-4.27138e-09
-2.91691e-10
-1.70974e-09
2.418e-10
2.72708e-10
2.07789e-10
1.36181e-09
1.11327e-09
-4.74835e-11
-1.01168e-09
-6.54429e-10
-5.49149e-10
-2.15853e-09
1.59141e-09
-4.80016e-09
4.84546e-09
-8.7434e-09
8.81133e-09
-1.40876e-08
1.3183e-08
-2.08777e-08
1.77294e-08
-2.9114e-08
2.22788e-08
-3.87609e-08
2.67043e-08
-4.97546e-08
3.09129e-08
-6.20092e-08
3.48371e-08
-7.54227e-08
3.84288e-08
-8.98807e-08
4.16546e-08
-1.0526e-07
4.44924e-08
-1.21432e-07
4.69287e-08
-1.38264e-07
4.89568e-08
-1.55623e-07
5.05753e-08
-1.73375e-07
5.17869e-08
-1.91387e-07
5.25975e-08
-2.09528e-07
5.30157e-08
-2.27672e-07
5.30521e-08
-2.45693e-07
5.27191e-08
-2.63473e-07
5.20301e-08
-2.80896e-07
5.09999e-08
-2.97852e-07
4.96439e-08
-3.14236e-07
4.79785e-08
-3.29949e-07
4.60204e-08
-3.44897e-07
4.37868e-08
-3.58992e-07
4.12954e-08
-3.72154e-07
3.85643e-08
-3.84306e-07
3.56118e-08
-3.95379e-07
3.24566e-08
-4.05312e-07
2.91175e-08
-4.14046e-07
2.56138e-08
-4.21535e-07
2.19649e-08
-4.27733e-07
1.81908e-08
-4.32607e-07
1.43114e-08
-4.36128e-07
1.03473e-08
-4.38272e-07
6.31912e-09
-4.39028e-07
2.24796e-09
-4.38386e-07
-1.84477e-09
-4.36349e-07
-5.93734e-09
-4.32923e-07
-1.00077e-08
-4.28124e-07
-1.40335e-08
-4.21976e-07
-1.79922e-08
-4.14509e-07
-2.18608e-08
-4.05762e-07
-2.56165e-08
-3.95783e-07
-2.9236e-08
-3.84625e-07
-3.26961e-08
-3.7235e-07
-3.59738e-08
-3.59029e-07
-3.9046e-08
-3.44739e-07
-4.18899e-08
-3.29566e-07
-4.44831e-08
-3.13601e-07
-4.68038e-08
-2.96945e-07
-4.88306e-08
-2.79702e-07
-5.05433e-08
-2.61987e-07
-5.19224e-08
-2.43916e-07
-5.29497e-08
-2.25614e-07
-5.36084e-08
-2.07209e-07
-5.38836e-08
-1.88833e-07
-5.37619e-08
-1.70622e-07
-5.32326e-08
-1.52714e-07
-5.22874e-08
-1.35248e-07
-5.09209e-08
-1.18363e-07
-4.91316e-08
-1.02195e-07
-4.6922e-08
-8.68779e-08
-4.42993e-08
-7.25406e-08
-4.12772e-08
-5.9303e-08
-3.78763e-08
-4.72742e-08
-3.41265e-08
-3.6549e-08
-3.0069e-08
-2.72033e-08
-2.57598e-08
-1.92889e-08
-2.12735e-08
-1.28277e-08
-1.67094e-08
-7.80445e-09
-1.21994e-08
-4.15826e-09
-7.91755e-09
-1.77393e-09
-4.09406e-09
-4.72053e-10
-1.0292e-09
2.07563e-12
8.87682e-10
1.11538e-09
-2.94291e-10
-7.17399e-10
-1.51833e-09
6.74878e-10
-3.9407e-09
4.01377e-09
-7.76046e-09
8.66523e-09
-1.31148e-08
1.41657e-08
-2.00851e-08
2.01533e-08
-2.87035e-08
2.63478e-08
-3.89601e-08
3.25354e-08
-5.08097e-08
3.85539e-08
-6.41784e-08
4.42816e-08
-7.89692e-08
4.96279e-08
-9.5067e-08
5.45267e-08
-1.12343e-07
5.89308e-08
-1.30659e-07
6.28081e-08
-1.49868e-07
6.61382e-08
-1.69821e-07
6.89098e-08
-1.90365e-07
7.11192e-08
-2.11347e-07
7.27685e-08
-2.32614e-07
7.38645e-08
-2.54016e-07
7.44178e-08
-2.75406e-07
7.44421e-08
-2.9664e-07
7.39535e-08
-3.1758e-07
7.29702e-08
-3.38093e-07
7.1512e-08
-3.58049e-07
6.95999e-08
-3.77326e-07
6.72563e-08
-3.9581e-07
6.45041e-08
-4.1339e-07
6.13672e-08
-4.29965e-07
5.78701e-08
-4.45439e-07
5.40379e-08
-4.59723e-07
4.98962e-08
-4.72737e-07
4.5471e-08
-4.84409e-07
4.07887e-08
-4.94671e-07
3.58762e-08
-5.03467e-07
3.07609e-08
-5.10747e-07
2.54706e-08
-5.16469e-07
2.00334e-08
-5.20599e-07
1.44779e-08
-5.23113e-07
8.83329e-09
-5.23995e-07
3.12908e-09
-5.23235e-07
-2.60475e-09
-5.20834e-07
-8.33774e-09
-5.16803e-07
-1.4039e-08
-5.11159e-07
-1.96774e-08
-5.0393e-07
-2.52212e-08
-4.95152e-07
-3.06385e-08
-4.84872e-07
-3.58973e-08
-4.73142e-07
-4.09652e-08
-4.60028e-07
-4.58101e-08
-4.45603e-07
-5.03996e-08
-4.29947e-07
-5.47018e-08
-4.13152e-07
-5.86851e-08
-3.95316e-07
-6.23186e-08
-3.76548e-07
-6.55719e-08
-3.56963e-07
-6.84157e-08
-3.36684e-07
-7.0822e-08
-3.15842e-07
-7.27642e-08
-2.94574e-07
-7.42175e-08
-2.73024e-07
-7.51589e-08
-2.51339e-07
-7.55684e-08
-2.29673e-07
-7.54282e-08
-2.08181e-07
-7.47241e-08
-1.87023e-07
-7.34457e-08
-1.66357e-07
-7.15867e-08
-1.46343e-07
-6.91461e-08
-1.27136e-07
-6.61288e-08
-1.08889e-07
-6.25465e-08
-9.17466e-08
-5.84194e-08
-7.58453e-08
-5.37776e-08
-6.13081e-08
-4.86638e-08
-4.82418e-08
-4.31353e-08
-3.6733e-08
-3.72686e-08
-2.68425e-08
-3.11639e-08
-1.86007e-08
-2.49513e-08
-1.20006e-08
-1.87994e-08
-6.9923e-09
-1.29258e-08
-3.47588e-09
-7.61046e-09
-1.29541e-09
-3.20968e-09
-2.3288e-10
-1.74848e-10
8.82486e-10
-5.50562e-10
-1.66845e-10
-2.4296e-09
2.55392e-09
-5.83014e-09
7.41433e-09
-1.09001e-08
1.37352e-08
-1.77403e-08
2.10059e-08
-2.6406e-08
2.8819e-08
-3.69098e-08
3.68516e-08
-4.92264e-08
4.4852e-08
-6.32975e-08
5.26251e-08
-7.9037e-08
6.00211e-08
-9.63355e-08
6.69265e-08
-1.15065e-07
7.32566e-08
-1.35084e-07
7.89499e-08
-1.5624e-07
8.39632e-08
-1.7837e-07
8.82682e-08
-2.01308e-07
9.18486e-08
-2.24887e-07
9.46976e-08
-2.48935e-07
9.68163e-08
-2.73282e-07
9.82121e-08
-2.97762e-07
9.88974e-08
-3.22209e-07
9.88892e-08
-3.46463e-07
9.82074e-08
-3.70368e-07
9.68752e-08
-3.93774e-07
9.49178e-08
-4.16536e-07
9.23625e-08
-4.38518e-07
8.9238e-08
-4.59588e-07
8.55743e-08
-4.79624e-07
8.14027e-08
-4.98509e-07
7.67553e-08
-5.16136e-07
7.1665e-08
-5.32405e-07
6.61656e-08
-5.47226e-07
6.02914e-08
-5.60514e-07
5.40774e-08
-5.72197e-07
4.75591e-08
-5.82209e-07
4.07727e-08
-5.90494e-07
3.37551e-08
-5.97004e-07
2.65436e-08
-6.01702e-07
1.9176e-08
-6.0456e-07
1.16911e-08
-6.05558e-07
4.12788e-09
-6.04689e-07
-3.47387e-09
-6.01953e-07
-1.10739e-08
-5.97361e-07
-1.86313e-08
-5.90934e-07
-2.61047e-08
-5.82702e-07
-3.34525e-08
-5.72709e-07
-4.06324e-08
-5.61004e-07
-4.76021e-08
-5.4765e-07
-5.43191e-08
-5.32719e-07
-6.07409e-08
-5.16294e-07
-6.68249e-08
-4.98466e-07
-7.25294e-08
-4.79338e-07
-7.78127e-08
-4.59023e-07
-8.26342e-08
-4.3764e-07
-8.69543e-08
-4.15321e-07
-9.07348e-08
-3.92204e-07
-9.3939e-08
-3.68436e-07
-9.65324e-08
-3.44171e-07
-9.84829e-08
-3.19569e-07
-9.97611e-08
-2.94796e-07
-1.00341e-07
-2.70024e-07
-1.002e-07
-2.45427e-07
-9.93213e-08
-2.21181e-07
-9.76912e-08
-1.97465e-07
-9.53032e-08
-1.74454e-07
-9.21572e-08
-1.52322e-07
-8.82609e-08
-1.31237e-07
-8.36312e-08
-1.1136e-07
-7.8296e-08
-9.2842e-08
-7.22959e-08
-7.58187e-08
-6.56871e-08
-6.04098e-08
-5.85442e-08
-4.67132e-08
-5.09652e-08
-3.48015e-08
-4.30756e-08
-2.47167e-08
-3.50361e-08
-1.6466e-08
-2.70502e-08
-1.00167e-08
-1.93751e-08
-5.29246e-09
-1.23347e-08
-2.17021e-09
-6.33195e-09
-4.78708e-10
-1.86635e-09
4.03752e-10
-8.06425e-10
6.39585e-10
-3.35344e-09
5.10094e-09
-7.75964e-09
1.18206e-08
-1.41176e-08
2.00931e-08
-2.24863e-08
2.93747e-08
-3.2889e-08
3.92217e-08
-4.53138e-08
4.92764e-08
-5.97156e-08
5.92537e-08
-7.60194e-08
6.89289e-08
-9.41246e-08
7.81262e-08
-1.13908e-07
8.67101e-08
-1.35229e-07
9.45775e-08
-1.57932e-07
1.01653e-07
-1.81849e-07
1.07881e-07
-2.06806e-07
1.13225e-07
-2.32622e-07
1.17665e-07
-2.59113e-07
1.21188e-07
-2.86093e-07
1.23797e-07
-3.13378e-07
1.25497e-07
-3.40783e-07
1.26303e-07
-3.6813e-07
1.26236e-07
-3.95241e-07
1.25319e-07
-4.21947e-07
1.23581e-07
-4.48081e-07
1.21052e-07
-4.73486e-07
1.17768e-07
-4.98011e-07
1.13762e-07
-5.21511e-07
1.09074e-07
-5.4385e-07
1.03742e-07
-5.64902e-07
9.78069e-08
-5.84547e-07
9.13099e-08
-6.02675e-07
8.42939e-08
-6.19186e-07
7.68023e-08
-6.33988e-07
6.88795e-08
-6.46999e-07
6.05707e-08
-6.58148e-07
5.19218e-08
-6.67373e-07
4.29796e-08
-6.74621e-07
3.37916e-08
-6.79851e-07
2.4406e-08
-6.83032e-07
1.48719e-08
-6.84143e-07
5.23899e-09
-6.83174e-07
-4.44222e-09
-6.80128e-07
-1.41205e-08
-6.75015e-07
-2.37441e-08
-6.67859e-07
-3.32604e-08
-6.58695e-07
-4.26166e-08
-6.47569e-07
-5.17591e-08
-6.34536e-07
-6.06344e-08
-6.19667e-07
-6.91886e-08
-6.0304e-07
-7.73678e-08
-5.84746e-07
-8.51186e-08
-5.64888e-07
-9.2388e-08
-5.43577e-07
-9.91235e-08
-5.20937e-07
-1.05274e-07
-4.97101e-07
-1.1079e-07
-4.72213e-07
-1.15623e-07
-4.46425e-07
-1.19727e-07
-4.19898e-07
-1.23059e-07
-3.92802e-07
-1.2558e-07
-3.65311e-07
-1.27252e-07
-3.37609e-07
-1.28043e-07
-3.09882e-07
-1.27927e-07
-2.82322e-07
-1.26882e-07
-2.55121e-07
-1.24892e-07
-2.28472e-07
-1.21952e-07
-2.02569e-07
-1.1806e-07
-1.77601e-07
-1.1323e-07
-1.5375e-07
-1.07482e-07
-1.31192e-07
-1.00854e-07
-1.10092e-07
-9.33961e-08
-9.05994e-08
-8.51797e-08
-7.28467e-08
-7.62969e-08
-5.69454e-08
-6.68665e-08
-4.29818e-08
-5.70392e-08
-3.10135e-08
-4.70044e-08
-2.10659e-08
-3.69978e-08
-1.3129e-08
-2.73121e-08
-7.15555e-09
-1.83081e-08
-3.06096e-09
-1.04265e-08
-7.25173e-10
-4.20214e-09
-3.21437e-10
-1.05679e-09
1.69639e-09
-4.26961e-09
8.31378e-09
-9.68736e-09
1.72383e-08
-1.73469e-08
2.77527e-08
-2.72628e-08
3.92906e-08
-3.94229e-08
5.13818e-08
-5.37867e-08
6.36402e-08
-7.02859e-08
7.5753e-08
-8.88262e-08
8.74692e-08
-1.0929e-07
9.85898e-08
-1.31538e-07
1.08959e-07
-1.55417e-07
1.18456e-07
-1.80755e-07
1.26991e-07
-2.07374e-07
1.34499e-07
-2.35083e-07
1.40935e-07
-2.63689e-07
1.46271e-07
-2.92993e-07
1.50493e-07
-3.22797e-07
1.536e-07
-3.529e-07
1.556e-07
-3.83107e-07
1.56509e-07
-4.13221e-07
1.5635e-07
-4.43055e-07
1.55153e-07
-4.72424e-07
1.52949e-07
-5.01148e-07
1.49777e-07
-5.29058e-07
1.45677e-07
-5.55989e-07
1.40693e-07
-5.81785e-07
1.34871e-07
-6.063e-07
1.28257e-07
-6.29396e-07
1.20902e-07
-6.50943e-07
1.12857e-07
-6.70823e-07
1.04174e-07
-6.88926e-07
9.49052e-08
-7.05153e-07
8.51066e-08
-7.19415e-07
7.48332e-08
-7.31635e-07
6.41418e-08
-7.41745e-07
5.30897e-08
-7.49689e-07
4.17355e-08
-7.55422e-07
3.01387e-08
-7.5891e-07
1.83597e-08
-7.6013e-07
6.45956e-09
-7.59073e-07
-5.49936e-09
-7.5574e-07
-1.74541e-08
-7.50143e-07
-2.93409e-08
-7.42308e-07
-4.10951e-08
-7.32273e-07
-5.26517e-08
-7.20087e-07
-6.39451e-08
-7.05812e-07
-7.49094e-08
-6.89522e-07
-8.54784e-08
-6.71304e-07
-9.55862e-08
-6.51255e-07
-1.05167e-07
-6.29487e-07
-1.14157e-07
-6.0612e-07
-1.2249e-07
-5.81289e-07
-1.30105e-07
-5.55137e-07
-1.36942e-07
-5.27819e-07
-1.4294e-07
-4.99501e-07
-1.48045e-07
-4.70355e-07
-1.52205e-07
-4.40566e-07
-1.55369e-07
-4.10321e-07
-1.57496e-07
-3.79819e-07
-1.58545e-07
-3.49261e-07
-1.58485e-07
-3.18852e-07
-1.57291e-07
-2.888e-07
-1.54944e-07
-2.59314e-07
-1.51438e-07
-2.306e-07
-1.46773e-07
-2.02864e-07
-1.40966e-07
-1.76302e-07
-1.34044e-07
-1.51104e-07
-1.26051e-07
-1.27449e-07
-1.17052e-07
-1.055e-07
-1.07129e-07
-8.5404e-08
-9.63926e-08
-6.7288e-08
-8.49825e-08
-5.12544e-08
-7.30728e-08
-3.73793e-08
-6.08795e-08
-2.57097e-08
-4.86674e-08
-1.62623e-08
-3.67595e-08
-9.02251e-09
-2.55478e-08
-3.9468e-09
-1.55023e-08
-9.66909e-10
-7.18204e-09
-1.28835e-09
-1.29926e-09
2.99566e-09
-5.16694e-09
1.21815e-08
-1.15884e-08
2.36598e-08
-2.05467e-08
3.67109e-08
-3.20114e-08
5.07553e-08
-4.5933e-08
6.53035e-08
-6.22402e-08
7.99474e-08
-8.08388e-08
9.43515e-08
-1.01612e-07
1.08243e-07
-1.24424e-07
1.21402e-07
-1.49119e-07
1.33654e-07
-1.75527e-07
1.44863e-07
-2.03462e-07
1.54927e-07
-2.32732e-07
1.63769e-07
-2.63133e-07
1.71336e-07
-2.94458e-07
1.77596e-07
-3.26496e-07
1.82531e-07
-3.59034e-07
1.86138e-07
-3.9186e-07
1.88426e-07
-4.24764e-07
1.89413e-07
-4.57539e-07
1.89126e-07
-4.89984e-07
1.87597e-07
-5.219e-07
1.84866e-07
-5.53099e-07
1.80976e-07
-5.83398e-07
1.75976e-07
-6.12621e-07
1.69916e-07
-6.40602e-07
1.62852e-07
-6.67185e-07
1.5484e-07
-6.92221e-07
1.45939e-07
-7.15573e-07
1.36209e-07
-7.37113e-07
1.25714e-07
-7.56725e-07
1.14517e-07
-7.74303e-07
1.02684e-07
-7.89751e-07
9.02815e-08
-8.02986e-07
7.73772e-08
-8.13937e-07
6.40403e-08
-8.22542e-07
5.0341e-08
-8.28754e-07
3.63509e-08
-8.32537e-07
2.21424e-08
-8.33867e-07
7.7891e-09
-8.32732e-07
-6.63433e-09
-8.29134e-07
-2.10522e-08
-8.23086e-07
-3.5388e-08
-8.14617e-07
-4.95643e-08
-8.03766e-07
-6.35031e-08
-7.90585e-07
-7.71255e-08
-7.75142e-07
-9.03527e-08
-7.57515e-07
-1.03106e-07
-7.37796e-07
-1.15305e-07
-7.1609e-07
-1.26873e-07
-6.92516e-07
-1.37731e-07
-6.67202e-07
-1.47804e-07
-6.40292e-07
-1.57016e-07
-6.1194e-07
-1.65294e-07
-5.82309e-07
-1.7257e-07
-5.51578e-07
-1.78777e-07
-5.1993e-07
-1.83852e-07
-4.87561e-07
-1.87738e-07
-4.54673e-07
-1.90384e-07
-4.21476e-07
-1.91742e-07
-3.88185e-07
-1.91777e-07
-3.55019e-07
-1.90457e-07
-3.22199e-07
-1.87764e-07
-2.89949e-07
-1.83688e-07
-2.58489e-07
-1.78233e-07
-2.28038e-07
-1.71417e-07
-1.98807e-07
-1.63275e-07
-1.71e-07
-1.53859e-07
-1.44809e-07
-1.43242e-07
-1.20415e-07
-1.31523e-07
-9.79785e-08
-1.18829e-07
-7.76439e-08
-1.05317e-07
-5.95319e-08
-9.11848e-08
-4.37397e-08
-7.66717e-08
-3.03389e-08
-6.20681e-08
-1.93749e-08
-4.77235e-08
-1.0868e-08
-3.40548e-08
-4.81618e-09
-2.1554e-08
-1.20135e-09
-1.07969e-08
-2.48968e-09
-1.53296e-09
4.52862e-09
-6.03993e-09
1.66884e-08
-1.34491e-08
3.1069e-08
-2.36927e-08
4.69546e-08
-3.66962e-08
6.37588e-08
-5.23723e-08
8.09795e-08
-7.0617e-08
9.81922e-08
-9.13086e-08
1.15043e-07
-1.14307e-07
1.31241e-07
-1.39455e-07
1.46549e-07
-1.66578e-07
1.60777e-07
-1.95489e-07
1.73774e-07
-2.25989e-07
1.85427e-07
-2.57869e-07
1.95649e-07
-2.90913e-07
2.0438e-07
-3.249e-07
2.11583e-07
-3.59606e-07
2.17237e-07
-3.94807e-07
2.21338e-07
-4.30277e-07
2.23896e-07
-4.65795e-07
2.24931e-07
-5.01142e-07
2.24473e-07
-5.36105e-07
2.22559e-07
-5.70475e-07
2.19236e-07
-6.04052e-07
2.14553e-07
-6.36643e-07
2.08566e-07
-6.68062e-07
2.01336e-07
-6.98135e-07
1.92924e-07
-7.26694e-07
1.83399e-07
-7.53584e-07
1.72828e-07
-7.78659e-07
1.61284e-07
-8.01784e-07
1.48839e-07
-8.22835e-07
1.35569e-07
-8.41701e-07
1.2155e-07
-8.58281e-07
1.06861e-07
-8.72486e-07
9.15821e-08
-8.8424e-07
7.57943e-08
-8.93479e-07
5.95805e-08
-9.00153e-07
4.30246e-08
-9.04222e-07
2.6212e-08
-9.05663e-07
9.22932e-09
-9.04461e-07
-7.83553e-09
-9.0062e-07
-2.48936e-08
-8.94153e-07
-4.18547e-08
-8.8509e-07
-5.86279e-08
-8.73471e-07
-7.51214e-08
-8.59354e-07
-9.12428e-08
-8.42808e-07
-1.06899e-07
-8.23916e-07
-1.21998e-07
-8.02775e-07
-1.36446e-07
-7.79497e-07
-1.50151e-07
-7.54205e-07
-1.63023e-07
-7.27038e-07
-1.74971e-07
-6.98145e-07
-1.85909e-07
-6.67689e-07
-1.9575e-07
-6.35845e-07
-2.04415e-07
-6.02797e-07
-2.11824e-07
-5.68743e-07
-2.17906e-07
-5.33888e-07
-2.22593e-07
-4.98446e-07
-2.25825e-07
-4.62639e-07
-2.2755e-07
-4.26694e-07
-2.27722e-07
-3.90843e-07
-2.26308e-07
-3.55321e-07
-2.23286e-07
-3.20363e-07
-2.18645e-07
-2.86205e-07
-2.12391e-07
-2.53079e-07
-2.04544e-07
-2.2121e-07
-1.95144e-07
-1.90816e-07
-1.84252e-07
-1.62107e-07
-1.71951e-07
-1.35276e-07
-1.58354e-07
-1.10503e-07
-1.43601e-07
-8.79505e-08
-1.2787e-07
-6.7759e-08
-1.11376e-07
-5.0049e-08
-9.43817e-08
-3.49183e-08
-7.71988e-08
-2.24428e-08
-6.0199e-08
-1.26782e-08
-4.38195e-08
-5.66345e-09
-2.85688e-08
-1.42753e-09
-1.50328e-08
-3.9172e-09
-1.75787e-09
6.28649e-09
-6.88661e-09
2.18172e-08
-1.52632e-08
3.94455e-08
-2.67725e-08
5.84639e-08
-4.12975e-08
7.82838e-08
-5.87132e-08
9.83951e-08
-7.88826e-08
1.18362e-07
-1.01655e-07
1.37816e-07
-1.26866e-07
1.56452e-07
-1.54334e-07
1.74018e-07
-1.83867e-07
1.9031e-07
-2.1526e-07
2.05167e-07
-2.48297e-07
2.18463e-07
-2.82753e-07
2.30105e-07
-3.184e-07
2.40027e-07
-3.55003e-07
2.48186e-07
-3.92325e-07
2.54559e-07
-4.3013e-07
2.59143e-07
-4.6818e-07
2.61947e-07
-5.06244e-07
2.62994e-07
-5.4409e-07
2.62319e-07
-5.81495e-07
2.59964e-07
-6.18241e-07
2.55982e-07
-6.54116e-07
2.50429e-07
-6.8892e-07
2.43369e-07
-7.22456e-07
2.34872e-07
-7.54542e-07
2.2501e-07
-7.85002e-07
2.1386e-07
-8.13674e-07
2.015e-07
-8.40403e-07
1.88014e-07
-8.6505e-07
1.73485e-07
-8.87483e-07
1.58002e-07
-9.07585e-07
1.41652e-07
-9.25251e-07
1.24527e-07
-9.40389e-07
1.06719e-07
-9.52917e-07
8.83223e-08
-9.62768e-07
6.94323e-08
-9.6989e-07
5.01464e-08
-9.74242e-07
3.05636e-08
-9.75796e-07
1.0784e-08
-9.74541e-07
-9.0907e-09
-9.70477e-07
-2.89574e-08
-9.6362e-07
-4.8712e-08
-9.53999e-07
-6.82491e-08
-9.41658e-07
-8.74627e-08
-9.26655e-07
-1.06246e-07
-9.09063e-07
-1.24491e-07
-8.88969e-07
-1.42091e-07
-8.66476e-07
-1.58939e-07
-8.41698e-07
-1.74929e-07
-8.14767e-07
-1.89954e-07
-7.85825e-07
-2.03913e-07
-7.5503e-07
-2.16703e-07
-7.22553e-07
-2.28228e-07
-6.88576e-07
-2.38392e-07
-6.53293e-07
-2.47106e-07
-6.16912e-07
-2.54288e-07
-5.79647e-07
-2.59858e-07
-5.41723e-07
-2.63749e-07
-5.03373e-07
-2.659e-07
-4.64836e-07
-2.66259e-07
-4.26357e-07
-2.64788e-07
-3.88182e-07
-2.61461e-07
-3.5056e-07
-2.56267e-07
-3.1374e-07
-2.49211e-07
-2.77968e-07
-2.40316e-07
-2.43484e-07
-2.29628e-07
-2.10521e-07
-2.17214e-07
-1.79304e-07
-2.03168e-07
-1.50044e-07
-1.87614e-07
-1.2294e-07
-1.70706e-07
-9.81722e-08
-1.52638e-07
-7.59046e-08
-1.33644e-07
-5.62819e-08
-1.14004e-07
-3.94295e-08
-9.40512e-08
-2.54543e-08
-7.41742e-08
-1.44472e-08
-5.48266e-08
-6.48674e-09
-3.65292e-08
-1.64545e-09
-1.98741e-08
-5.56265e-09
-1.97447e-09
8.26096e-09
-7.70719e-09
2.75499e-08
-1.70292e-08
4.87676e-08
-2.97816e-08
7.12163e-08
-4.58067e-08
9.43089e-08
-6.49427e-08
1.17531e-07
-8.70196e-08
1.40439e-07
-1.11857e-07
1.62654e-07
-1.39265e-07
1.83859e-07
-1.69038e-07
2.03791e-07
-2.00964e-07
2.22236e-07
-2.34817e-07
2.39021e-07
-2.70366e-07
2.54012e-07
-3.07372e-07
2.67111e-07
-3.45589e-07
2.78244e-07
-3.8477e-07
2.87367e-07
-4.24665e-07
2.94455e-07
-4.65026e-07
2.99504e-07
-5.05605e-07
3.02526e-07
-5.46158e-07
3.03547e-07
-5.86444e-07
3.02605e-07
-6.2623e-07
2.9975e-07
-6.65287e-07
2.95039e-07
-7.03396e-07
2.88538e-07
-7.40345e-07
2.80319e-07
-7.75934e-07
2.7046e-07
-8.09968e-07
2.59045e-07
-8.42267e-07
2.46159e-07
-8.7266e-07
2.31893e-07
-9.00988e-07
2.16341e-07
-9.27103e-07
1.996e-07
-9.5087e-07
1.81769e-07
-9.72167e-07
1.62949e-07
-9.90883e-07
1.43244e-07
-1.00692e-06
1.22758e-07
-1.0202e-06
1.01601e-07
-1.03065e-06
7.98801e-08
-1.03821e-06
5.77074e-08
-1.04284e-06
3.51954e-08
-1.04452e-06
1.24587e-08
-1.04322e-06
-1.03868e-08
-1.03895e-06
-3.32236e-08
-1.03173e-06
-5.59327e-08
-1.02159e-06
-7.83941e-08
-1.00856e-06
-1.00487e-07
-9.92722e-07
-1.22088e-07
-9.74136e-07
-1.43077e-07
-9.52897e-07
-1.6333e-07
-9.29111e-07
-1.82725e-07
-9.02898e-07
-2.01142e-07
-8.74392e-07
-2.1846e-07
-8.43743e-07
-2.34561e-07
-8.11116e-07
-2.49331e-07
-7.76686e-07
-2.62657e-07
-7.40645e-07
-2.74433e-07
-7.03195e-07
-2.84556e-07
-6.6455e-07
-2.92932e-07
-6.24937e-07
-2.99472e-07
-5.84589e-07
-3.04097e-07
-5.4375e-07
-3.06739e-07
-5.02669e-07
-3.07339e-07
-4.61604e-07
-3.05853e-07
-4.20814e-07
-3.02251e-07
-3.8056e-07
-2.96521e-07
-3.41104e-07
-2.88666e-07
-3.02707e-07
-2.78714e-07
-2.65623e-07
-2.66712e-07
-2.30103e-07
-2.52735e-07
-1.96386e-07
-2.36885e-07
-1.64703e-07
-2.19296e-07
-1.35271e-07
-2.00138e-07
-1.08293e-07
-1.79616e-07
-8.39556e-08
-1.57982e-07
-6.24286e-08
-1.35531e-07
-4.3866e-08
-1.12614e-07
-2.84062e-08
-8.9634e-08
-1.61743e-08
-6.70584e-08
-7.28654e-09
-4.5417e-08
-1.85566e-09
-2.53049e-08
-7.41831e-09
-2.18351e-09
1.04445e-08
-8.50323e-09
3.38696e-08
-1.87488e-08
5.90132e-08
-3.27208e-08
8.51883e-08
-5.0223e-08
1.11811e-07
-7.10578e-08
1.38366e-07
-9.50227e-08
1.64403e-07
-1.21908e-07
1.89539e-07
-1.51495e-07
2.13446e-07
-1.83557e-07
2.35853e-07
-2.17857e-07
2.56536e-07
-2.54153e-07
2.75317e-07
-2.92194e-07
2.92053e-07
-3.31724e-07
3.06641e-07
-3.72484e-07
3.19004e-07
-4.14213e-07
3.29095e-07
-4.56647e-07
3.36889e-07
-4.99526e-07
3.42383e-07
-5.42592e-07
3.45591e-07
-5.85589e-07
3.46543e-07
-6.28266e-07
3.45283e-07
-6.70382e-07
3.41865e-07
-7.11698e-07
3.36355e-07
-7.51986e-07
3.28827e-07
-7.91028e-07
3.19361e-07
-8.28613e-07
3.08046e-07
-8.64543e-07
2.94974e-07
-8.98629e-07
2.80244e-07
-9.30694e-07
2.63958e-07
-9.60573e-07
2.46221e-07
-9.88114e-07
2.27141e-07
-1.01318e-06
2.06832e-07
-1.03563e-06
1.85406e-07
-1.05537e-06
1.62981e-07
-1.07229e-06
1.39676e-07
-1.0863e-06
1.15612e-07
-1.09733e-06
9.09124e-08
-1.10533e-06
6.57021e-08
-1.11024e-06
4.01086e-08
-1.11204e-06
1.42609e-08
-1.11072e-06
-1.17102e-08
-1.10627e-06
-3.76721e-08
-1.09871e-06
-6.34908e-08
-1.08807e-06
-8.9031e-08
-1.07441e-06
-1.14156e-07
-1.05777e-06
-1.38728e-07
-1.03823e-06
-1.6261e-07
-1.0159e-06
-1.85664e-07
-9.90872e-07
-2.07751e-07
-9.63278e-07
-2.28736e-07
-9.33256e-07
-2.48482e-07
-9.0096e-07
-2.66858e-07
-8.66558e-07
-2.83733e-07
-8.30234e-07
-2.98981e-07
-7.92186e-07
-3.12481e-07
-7.52624e-07
-3.24119e-07
-7.11769e-07
-3.33787e-07
-6.69856e-07
-3.41385e-07
-6.2713e-07
-3.46824e-07
-5.83843e-07
-3.50026e-07
-5.40257e-07
-3.50925e-07
-4.96638e-07
-3.49471e-07
-4.5326e-07
-3.4563e-07
-4.10395e-07
-3.39385e-07
-3.68322e-07
-3.3074e-07
-3.27312e-07
-3.19723e-07
-2.87639e-07
-3.06386e-07
-2.49567e-07
-2.90807e-07
-2.13356e-07
-2.73097e-07
-1.79253e-07
-2.53399e-07
-1.47497e-07
-2.31893e-07
-1.18313e-07
-2.088e-07
-9.1912e-08
-1.84383e-07
-6.849e-08
-1.58953e-07
-4.82299e-08
-1.32874e-07
-3.1301e-08
-1.06563e-07
-1.78621e-08
-8.04973e-08
-8.06488e-09
-5.52142e-08
-2.05903e-09
-3.13108e-08
-9.47733e-09
-2.38587e-09
1.28304e-08
-9.27706e-09
4.07608e-08
-2.04257e-08
7.01618e-08
-3.55945e-08
1.00357e-07
-5.45509e-08
1.30767e-07
-7.70628e-08
1.60878e-07
-1.02895e-07
1.90236e-07
-1.31809e-07
2.18453e-07
-1.63559e-07
2.45196e-07
-1.97893e-07
2.70187e-07
-2.34553e-07
2.93196e-07
-2.73274e-07
3.14038e-07
-3.13788e-07
3.32568e-07
-3.55823e-07
3.48676e-07
-3.99104e-07
3.62285e-07
-4.43354e-07
3.73345e-07
-4.88299e-07
3.81834e-07
-5.33666e-07
3.8775e-07
-5.79184e-07
3.91109e-07
-6.24587e-07
3.91947e-07
-6.69617e-07
3.90313e-07
-7.14021e-07
3.86268e-07
-7.57553e-07
3.79887e-07
-7.99976e-07
3.7125e-07
-8.41065e-07
3.6045e-07
-8.80603e-07
3.47584e-07
-9.18384e-07
3.32755e-07
-9.54214e-07
3.16074e-07
-9.8791e-07
2.97654e-07
-1.0193e-06
2.77613e-07
-1.04823e-06
2.56072e-07
-1.07456e-06
2.33157e-07
-1.09815e-06
2.08995e-07
-1.11888e-06
1.83717e-07
-1.13666e-06
1.57454e-07
-1.15139e-06
1.30343e-07
-1.163e-06
1.02521e-07
-1.17143e-06
7.41285e-08
-1.17663e-06
4.53066e-08
-1.17856e-06
1.61998e-08
-1.17723e-06
-1.3046e-08
-1.17262e-06
-4.22828e-08
-1.16475e-06
-7.13611e-08
-1.15365e-06
-1.0013e-07
-1.13937e-06
-1.28436e-07
-1.12197e-06
-1.56128e-07
-1.10153e-06
-1.83049e-07
-1.07815e-06
-2.09048e-07
-1.05193e-06
-2.33969e-07