/*--------------------------------*- C++ -*----------------------------------*\
  =========                 |
  \\      /  F ield         | OpenFOAM: The Open Source CFD Toolbox
   \\    /   O peration     | Website:  https://openfoam.org
    \\  /    A nd           | Version:  7
     \\/     M anipulation  |
\*---------------------------------------------------------------------------*/
FoamFile
{
    version     2.0;
    format      ascii;
    class       surfaceScalarField;
    location    "0.425";
    object      phi;
}
// * * * * * * * * * * * * * * * * * * * * * * * * * * * * * * * * * * * * * //

dimensions      [0 3 -1 0 0 0 0];

internalField   nonuniform List<scalar> 
12640
(
1.8916e-10
-1.9196e-10
5.5573e-10
-3.66576e-10
8.83157e-10
-3.27438e-10
1.04627e-09
-1.63119e-10
9.82932e-10
6.33301e-11
6.66054e-10
3.16866e-10
8.87685e-11
5.77273e-10
-7.43837e-10
8.32584e-10
-1.81955e-09
1.07571e-09
-3.1219e-09
1.30237e-09
-4.63189e-09
1.51001e-09
-6.32906e-09
1.69717e-09
-8.19218e-09
1.8631e-09
-1.01997e-08
2.0075e-09
-1.23301e-08
2.13039e-09
-1.45621e-08
2.232e-09
-1.68748e-08
2.31275e-09
-1.9248e-08
2.37315e-09
-2.16618e-08
2.41382e-09
-2.40972e-08
2.43544e-09
-2.6536e-08
2.43875e-09
-2.89605e-08
2.4245e-09
-3.1354e-08
2.39348e-09
-3.37005e-08
2.34649e-09
-3.59848e-08
2.28435e-09
-3.81927e-08
2.20788e-09
-4.03106e-08
2.11791e-09
-4.23259e-08
2.01529e-09
-4.42268e-08
1.90085e-09
-4.60022e-08
1.77543e-09
-4.76421e-08
1.6399e-09
-4.91372e-08
1.49509e-09
-5.04791e-08
1.34187e-09
-5.16602e-08
1.18111e-09
-5.26739e-08
1.01369e-09
-5.35144e-08
8.40501e-10
-5.41769e-08
6.62435e-10
-5.46573e-08
4.80413e-10
-5.49527e-08
2.95365e-10
-5.50609e-08
1.08237e-10
-5.49809e-08
-8.00054e-11
-5.47125e-08
-2.6838e-10
-5.42566e-08
-4.55887e-10
-5.36151e-08
-6.41506e-10
-5.27909e-08
-8.24202e-10
-5.1788e-08
-1.00292e-09
-5.06114e-08
-1.17661e-09
-4.92672e-08
-1.34417e-09
-4.77627e-08
-1.50453e-09
-4.61061e-08
-1.65659e-09
-4.43068e-08
-1.79925e-09
-4.23754e-08
-1.93144e-09
-4.03233e-08
-2.05206e-09
-3.81633e-08
-2.16004e-09
-3.59089e-08
-2.25435e-09
-3.3575e-08
-2.33394e-09
-3.11771e-08
-2.39784e-09
-2.8732e-08
-2.44511e-09
-2.62572e-08
-2.47484e-09
-2.3771e-08
-2.48619e-09
-2.12926e-08
-2.4784e-09
-1.88418e-08
-2.45076e-09
-1.64392e-08
-2.40268e-09
-1.41055e-08
-2.33365e-09
-1.18622e-08
-2.2433e-09
-9.7308e-09
-2.1314e-09
-7.73294e-09
-1.99787e-09
-5.89009e-09
-1.84286e-09
-4.22331e-09
-1.66678e-09
-2.7529e-09
-1.47042e-09
-1.49788e-09
-1.25502e-09
-4.75284e-10
-1.02259e-09
3.009e-10
-7.76181e-10
8.21455e-10
-5.20561e-10
1.08475e-09
-2.6331e-10
1.10152e-09
-1.67854e-11
9.02862e-10
1.98665e-10
5.54585e-10
3.48314e-10
1.83941e-10
3.70708e-10
1.83992e-10
3.65536e-10
-5.57504e-10
8.86489e-10
-8.87559e-10
1.21763e-09
-6.58598e-10
1.13585e-09
-8.13534e-11
5.03476e-10
6.95697e-10
-7.53352e-10
1.57368e-09
-2.6638e-09
2.48773e-09
-5.22681e-09
3.3956e-09
-8.42095e-09
4.26985e-09
-1.22112e-08
5.09258e-09
-1.65534e-08
5.85221e-09
-2.13977e-08
6.54142e-09
-2.66903e-08
7.15575e-09
-3.23756e-08
7.69279e-09
-3.83968e-08
8.15158e-09
-4.4697e-08
8.53221e-09
-5.12198e-08
8.83555e-09
-5.79097e-08
9.06305e-09
-6.47125e-08
9.21661e-09
-7.15755e-08
9.29844e-09
-7.84478e-08
9.31101e-09
-8.52803e-08
9.25698e-09
-9.2026e-08
9.13916e-09
-9.86399e-08
8.96047e-09
-1.05079e-07
8.72389e-09
-1.11304e-07
8.43251e-09
-1.17276e-07
8.08943e-09
-1.22958e-07
7.69782e-09
-1.28318e-07
7.26085e-09
-1.33325e-07
6.78177e-09
-1.37948e-07
6.2638e-09
-1.42164e-07
5.71024e-09
-1.45946e-07
5.1244e-09
-1.49275e-07
4.50964e-09
-1.5213e-07
3.86933e-09
-1.54497e-07
3.20693e-09
-1.5636e-07
2.52591e-09
-1.5771e-07
1.82981e-09
-1.58537e-07
1.12224e-09
-1.58835e-07
4.06854e-10
-1.58603e-07
-3.12631e-10
-1.57839e-07
-1.03242e-09
-1.56546e-07
-1.74867e-09
-1.5473e-07
-2.45746e-09
-1.52399e-07
-3.15482e-09
-1.49565e-07
-3.83672e-09
-1.46243e-07
-4.49908e-09
-1.42449e-07
-5.1378e-09
-1.38205e-07
-5.74873e-09
-1.33534e-07
-6.32773e-09
-1.28463e-07
-6.87065e-09
-1.23021e-07
-7.37338e-09
-1.17241e-07
-7.83183e-09
-1.11159e-07
-8.24199e-09
-1.04813e-07
-8.59994e-09
-9.82453e-08
-8.90187e-09
-9.1499e-08
-9.14412e-09
-8.46209e-08
-9.32321e-09
-7.76599e-08
-9.43586e-09
-7.0667e-08
-9.47906e-09
-6.36954e-08
-9.45005e-09
-5.67997e-08
-9.34645e-09
-5.00361e-08
-9.16624e-09
-4.34619e-08
-8.90786e-09
-3.7135e-08
-8.57027e-09
-3.11133e-08
-8.15307e-09
-2.54546e-08
-7.65662e-09
-2.02152e-08
-7.08221e-09
-1.54497e-08
-6.43233e-09
-1.12091e-08
-5.71105e-09
-7.53958e-09
-4.9245e-09
-4.4804e-09
-4.08179e-09
-2.06041e-09
-3.19617e-09
-2.93825e-10
-2.28713e-09
8.26327e-10
-1.38346e-09
1.3377e-09
-5.28217e-10
1.32238e-09
2.13871e-10
9.24702e-10
7.4586e-10
3.70644e-10
9.24693e-10
5.54659e-10
3.30176e-10
-8.87692e-10
6.66334e-10
-1.22374e-09
6.13595e-10
-6.05878e-10
-8.91279e-11
6.21353e-10
-1.61272e-09
2.2193e-09
-4.05646e-09
4.01742e-09
-7.46477e-09
5.89603e-09
-1.18416e-08
7.77246e-09
-1.71617e-08
9.5899e-09
-2.33786e-08
1.13094e-08
-3.04309e-08
1.29046e-08
-3.82471e-08
1.43576e-08
-4.67487e-08
1.56573e-08
-5.58527e-08
1.67968e-08
-6.54737e-08
1.77726e-08
-7.55252e-08
1.85837e-08
-8.59206e-08
1.92309e-08
-9.65741e-08
1.97166e-08
-1.07402e-07
2.00442e-08
-1.18321e-07
2.02178e-08
-1.29252e-07
2.02424e-08
-1.40119e-07
2.01233e-08
-1.50846e-07
1.98662e-08
-1.61363e-07
1.94773e-08
-1.71602e-07
1.89629e-08
-1.81499e-07
1.83295e-08
-1.90993e-07
1.75837e-08
-2.00027e-07
1.67323e-08
-2.08549e-07
1.57822e-08
-2.16507e-07
1.47403e-08
-2.23857e-07
1.36138e-08
-2.30557e-07
1.24097e-08
-2.36568e-07
1.11354e-08
-2.41856e-07
9.79803e-09
-2.46392e-07
8.40511e-09
-2.50149e-07
6.96415e-09
-2.53106e-07
5.48277e-09
-2.55245e-07
3.96873e-09
-2.56553e-07
2.4299e-09
-2.5702e-07
8.74279e-10
-2.56643e-07
-6.8999e-10
-2.55421e-07
-2.25463e-09
-2.53358e-07
-3.81125e-09
-2.50464e-07
-5.3513e-09
-2.46753e-07
-6.86613e-09
-2.42243e-07
-8.34699e-09
-2.36957e-07
-9.78503e-09
-2.30923e-07
-1.11713e-08
-2.24175e-07
-1.24969e-08
-2.1675e-07
-1.37529e-08
-2.0869e-07
-1.49303e-08
-2.00043e-07
-1.60202e-08
-1.90861e-07
-1.70139e-08
-1.81201e-07
-1.79027e-08
-1.71122e-07
-1.86783e-08
-1.60691e-07
-1.93327e-08
-1.49978e-07
-1.98579e-08
-1.39054e-07
-2.02468e-08
-1.27998e-07
-2.04923e-08
-1.16888e-07
-2.05883e-08
-1.05809e-07
-2.05292e-08
-9.48456e-08
-2.031e-08
-8.40848e-08
-1.99271e-08
-7.36153e-08
-1.93773e-08
-6.35262e-08
-1.86593e-08
-5.39065e-08
-1.77728e-08
-4.48436e-08
-1.67195e-08
-3.64225e-08
-1.55033e-08
-2.87242e-08
-1.41307e-08
-2.18233e-08
-1.26119e-08
-1.5786e-08
-1.09618e-08
-1.06665e-08
-9.2013e-09
-6.50241e-09
-7.36026e-09
-3.30905e-09
-5.48052e-09
-1.0713e-09
-3.62122e-09
2.66746e-10
-1.86623e-09
8.15362e-10
-3.3463e-10
7.54629e-10
8.06765e-10
3.51026e-10
1.32823e-09
9.05702e-10
1.71825e-10
-1.05953e-09
1.04761e-10
-1.15669e-09
-5.8793e-10
8.67935e-11
-2.17026e-09
2.20365e-09
-4.81935e-09
4.86838e-09
-8.6416e-09
7.83968e-09
-1.36864e-08
1.09409e-08
-1.99587e-08
1.40448e-08
-2.74292e-08
1.70603e-08
-3.60426e-08
1.99228e-08
-4.57247e-08
2.25866e-08
-5.63872e-08
2.50201e-08
-6.79318e-08
2.7202e-08
-8.02538e-08
2.91188e-08
-9.32441e-08
3.07629e-08
-1.06791e-07
3.21309e-08
-1.20784e-07
3.32231e-08
-1.35109e-07
3.40421e-08
-1.49658e-07
3.45928e-08
-1.64321e-07
3.48815e-08
-1.78995e-07
3.49159e-08
-1.93576e-07
3.47047e-08
-2.07967e-07
3.42573e-08
-2.22074e-07
3.35838e-08
-2.35806e-07
3.26946e-08
-2.49077e-07
3.16008e-08
-2.61807e-07
3.03136e-08
-2.73919e-07
2.88445e-08
-2.85342e-07
2.72052e-08
-2.9601e-07
2.54079e-08
-3.0586e-07
2.34645e-08
-3.14838e-07
2.13874e-08
-3.22892e-07
1.91891e-08
-3.29976e-07
1.68822e-08
-3.3605e-07
1.44796e-08
-3.4108e-07
1.19942e-08
-3.45037e-07
9.43933e-09
-3.47897e-07
6.82835e-09
-3.49642e-07
4.17489e-09
-3.5026e-07
1.49283e-09
-3.49746e-07
-1.20378e-09
-3.481e-07
-3.90062e-09
-3.45328e-07
-6.58318e-09
-3.41443e-07
-9.23674e-09
-3.36463e-07
-1.18464e-08
-3.30413e-07
-1.4397e-08
-3.23324e-07
-1.68734e-08
-3.15235e-07
-1.92603e-08
-3.0619e-07
-2.15423e-08
-2.96239e-07
-2.37041e-08
-2.85439e-07
-2.57303e-08
-2.73853e-07
-2.76058e-08
-2.61551e-07
-2.93158e-08
-2.48609e-07
-3.08455e-08
-2.35106e-07
-3.21807e-08
-2.21131e-07
-3.33078e-08
-2.06775e-07
-3.42137e-08
-1.92136e-07
-3.48861e-08
-1.77315e-07
-3.53135e-08
-1.62417e-07
-3.54857e-08
-1.47553e-07
-3.53934e-08
-1.32834e-07
-3.50289e-08
-1.18375e-07
-3.43863e-08
-1.04291e-07
-3.34614e-08
-9.06978e-08
-3.22524e-08
-7.77106e-08
-3.076e-08
-6.54419e-08
-2.89882e-08
-5.40002e-08
-2.69451e-08
-4.34876e-08
-2.46433e-08
-3.39978e-08
-2.21018e-08
-2.56124e-08
-1.93472e-08
-1.83969e-08
-1.64167e-08
-1.23961e-08
-1.33611e-08
-7.62694e-09
-1.02497e-08
-4.07135e-09
-7.17685e-09
-1.66611e-09
-4.27156e-09
-2.91369e-10
-1.70943e-09
2.42152e-10
2.73315e-10
2.07888e-10
1.36241e-09
1.11361e-09
-4.74114e-11
-1.01212e-09
-6.54309e-10
-5.49809e-10
-2.15849e-09
1.59097e-09
-4.8004e-09
4.84555e-09
-8.74425e-09
8.81218e-09
-1.40894e-08
1.31848e-08
-2.08807e-08
1.77322e-08
-2.91185e-08
2.22826e-08
-3.87672e-08
2.67091e-08
-4.9763e-08
3.09186e-08
-6.20201e-08
3.48438e-08
-7.54364e-08
3.84363e-08
-8.98973e-08
4.16629e-08
-1.0528e-07
4.45014e-08
-1.21455e-07
4.69382e-08
-1.38291e-07
4.89668e-08
-1.55654e-07
5.05857e-08
-1.73409e-07
5.17976e-08
-1.91425e-07
5.26084e-08
-2.0957e-07
5.30266e-08
-2.27717e-07
5.30631e-08
-2.45742e-07
5.27299e-08
-2.63526e-07
5.20408e-08
-2.80952e-07
5.10103e-08
-2.97912e-07
4.96541e-08
-3.14299e-07
4.79883e-08
-3.30016e-07
4.60297e-08
-3.44967e-07
4.37957e-08
-3.59065e-07
4.13038e-08
-3.7223e-07
3.85721e-08
-3.84384e-07
3.5619e-08
-3.9546e-07
3.2463e-08
-4.05394e-07
2.91233e-08
-4.1413e-07
2.56188e-08
-4.2162e-07
2.19692e-08
-4.2782e-07
1.81943e-08
-4.32695e-07
1.43142e-08
-4.36216e-07
1.03492e-08
-4.38361e-07
6.32022e-09
-4.39117e-07
2.24824e-09
-4.38475e-07
-1.84532e-09
-4.36437e-07
-5.93872e-09
-4.3301e-07
-1.00099e-08
-4.2821e-07
-1.40365e-08
-4.22061e-07
-1.7996e-08
-4.14592e-07
-2.18654e-08
-4.05844e-07
-2.56219e-08
-3.95862e-07
-2.92421e-08
-3.84702e-07
-3.27029e-08
-3.72424e-07
-3.59813e-08
-3.59101e-07
-3.90541e-08
-3.44808e-07
-4.18985e-08
-3.29631e-07
-4.44923e-08
-3.13663e-07
-4.68134e-08
-2.97003e-07
-4.88407e-08
-2.79757e-07
-5.05537e-08
-2.62038e-07
-5.19331e-08
-2.43964e-07
-5.29606e-08
-2.25658e-07
-5.36195e-08
-2.07249e-07
-5.38946e-08
-1.88869e-07
-5.37729e-08
-1.70655e-07
-5.32434e-08
-1.52743e-07
-5.2298e-08
-1.35273e-07
-5.09312e-08
-1.18384e-07
-4.91415e-08
-1.02213e-07
-4.69313e-08
-8.68931e-08
-4.4308e-08
-7.2553e-08
-4.12852e-08
-5.93128e-08
-3.78835e-08
-4.72817e-08
-3.41328e-08
-3.65545e-08
-3.00744e-08
-2.72071e-08
-2.57642e-08
-1.92913e-08
-2.12768e-08
-1.28291e-08
-1.67119e-08
-7.80503e-09
-1.22009e-08
-4.15839e-09
-7.91822e-09
-1.77386e-09
-4.09402e-09
-4.71865e-10
-1.02867e-09
2.15063e-12
8.88333e-10
1.11576e-09
-2.94275e-10
-7.17861e-10
-1.51841e-09
6.743e-10
-3.94107e-09
4.01363e-09
-7.76139e-09
8.66588e-09
-1.31167e-08
1.41674e-08
-2.00882e-08
2.01563e-08
-2.87083e-08
2.63522e-08
-3.89669e-08
3.25412e-08
-5.08188e-08
3.85611e-08
-6.41903e-08
4.42901e-08
-7.89841e-08
4.96376e-08
-9.50854e-08
5.45376e-08
-1.12365e-07
5.89427e-08
-1.30685e-07
6.2821e-08
-1.49898e-07
6.61518e-08
-1.69856e-07
6.89241e-08
-1.90404e-07
7.1134e-08
-2.1139e-07
7.27836e-08
-2.32661e-07
7.38799e-08
-2.54068e-07
7.44333e-08
-2.75463e-07
7.44576e-08
-2.96702e-07
7.39689e-08
-3.17646e-07
7.29853e-08
-3.38163e-07
7.15268e-08
-3.58123e-07
6.96143e-08
-3.77405e-07
6.72701e-08
-3.95892e-07
6.45173e-08
-4.13476e-07
6.13797e-08
-4.30054e-07
5.78819e-08
-4.45531e-07
5.40489e-08
-4.59818e-07
4.99063e-08
-4.72835e-07
4.54801e-08
-4.84509e-07
4.07968e-08
-4.94774e-07
3.58833e-08
-5.03571e-07
3.0767e-08
-5.10852e-07
2.54755e-08
-5.16576e-07
2.00372e-08
-5.20707e-07
1.44806e-08
-5.23221e-07
8.83483e-09
-5.24103e-07
3.12945e-09
-5.23342e-07
-2.60555e-09
-5.20941e-07
-8.33971e-09
-5.16909e-07
-1.40422e-08
-5.11264e-07
-1.96817e-08
-5.04034e-07
-2.52266e-08
-4.95254e-07
-3.0645e-08
-4.84971e-07
-3.59049e-08
-4.73239e-07
-4.09739e-08
-4.60122e-07
-4.58197e-08
-4.45694e-07
-5.04101e-08
-4.30034e-07
-5.47132e-08
-4.13236e-07
-5.86974e-08
-3.95396e-07
-6.23316e-08
-3.76624e-07
-6.55855e-08
-3.57035e-07
-6.84299e-08
-3.36752e-07
-7.08368e-08
-3.15906e-07
-7.27793e-08
-2.94633e-07
-7.42328e-08
-2.73078e-07
-7.51745e-08
-2.51389e-07
-7.5584e-08
-2.29718e-07
-7.54437e-08
-2.08222e-07
-7.47395e-08
-1.87059e-07
-7.34607e-08
-1.66389e-07
-7.16013e-08
-1.46371e-07
-6.91601e-08
-1.2716e-07
-6.6142e-08
-1.08909e-07
-6.25589e-08
-9.17633e-08
-5.84308e-08
-7.58588e-08
-5.3788e-08
-6.13186e-08
-4.8673e-08
-4.82498e-08
-4.31432e-08
-3.67388e-08
-3.72752e-08
-2.68466e-08
-3.11691e-08
-1.86033e-08
-2.49552e-08
-1.20021e-08
-1.8802e-08
-6.99301e-09
-1.29273e-08
-3.47615e-09
-7.6109e-09
-1.29542e-09
-3.2094e-09
-2.32854e-10
-1.7425e-10
8.82895e-10
-5.50616e-10
-1.67261e-10
-2.4299e-09
2.55358e-09
-5.831e-09
7.41472e-09
-1.09018e-08
1.37367e-08
-1.77433e-08
2.10089e-08
-2.64107e-08
2.88236e-08
-3.69166e-08
3.68581e-08
-4.92358e-08
4.48603e-08
-6.33098e-08
5.26352e-08
-7.90526e-08
6.00329e-08
-9.63549e-08
6.69399e-08
-1.15089e-07
7.32715e-08
-1.35112e-07
7.89661e-08
-1.56272e-07
8.39806e-08
-1.78407e-07
8.82866e-08
-2.01351e-07
9.18679e-08
-2.24934e-07
9.47175e-08
-2.48987e-07
9.68367e-08
-2.7334e-07
9.82327e-08
-2.97825e-07
9.89182e-08
-3.22277e-07
9.89099e-08
-3.46536e-07
9.8228e-08
-3.70447e-07
9.68955e-08
-3.93857e-07
9.49376e-08
-4.16625e-07
9.23817e-08
-4.38611e-07
8.92564e-08
-4.59686e-07
8.55919e-08
-4.79726e-07
8.14194e-08
-4.98615e-07
7.6771e-08
-5.16245e-07
7.16797e-08
-5.32518e-07
6.61791e-08
-5.47342e-07
6.03036e-08
-5.60633e-07
5.40882e-08
-5.72318e-07
4.75685e-08
-5.82332e-07
4.07808e-08
-5.90618e-07
3.37617e-08
-5.9713e-07
2.65486e-08
-6.01829e-07
1.91796e-08
-6.04687e-07
1.16931e-08
-6.05686e-07
4.12834e-09
-6.04816e-07
-3.47497e-09
-6.0208e-07
-1.10765e-08
-5.97486e-07
-1.86355e-08
-5.91058e-07
-2.61105e-08
-5.82824e-07
-3.34597e-08
-5.72828e-07
-4.06411e-08
-5.61121e-07
-4.76123e-08
-5.47764e-07
-5.43307e-08
-5.3283e-07
-6.07537e-08
-5.16401e-07
-6.6839e-08
-4.9857e-07
-7.25446e-08
-4.79438e-07
-7.7829e-08
-4.59118e-07
-8.26515e-08
-4.37731e-07
-8.69725e-08
-4.15407e-07
-9.07538e-08
-3.92285e-07
-9.39587e-08
-3.68512e-07
-9.65526e-08
-3.44241e-07
-9.85035e-08
-3.19634e-07
-9.97819e-08
-2.94856e-07
-1.00362e-07
-2.70079e-07
-1.00221e-07
-2.45476e-07
-9.93419e-08
-2.21226e-07
-9.77114e-08
-1.97504e-07
-9.53228e-08
-1.74488e-07
-9.2176e-08
-1.52351e-07
-8.82788e-08
-1.31262e-07
-8.3648e-08
-1.11382e-07
-7.83116e-08
-9.28595e-08
-7.23101e-08
-7.58328e-08
-6.56997e-08
-6.04207e-08
-5.85553e-08
-4.67215e-08
-5.09745e-08
-3.48074e-08
-4.30832e-08
-2.47208e-08
-3.50419e-08
-1.64685e-08
-2.70543e-08
-1.00181e-08
-1.93776e-08
-5.29314e-09
-1.23358e-08
-2.17043e-09
-6.33211e-09
-4.78743e-10
-1.86593e-09
4.04147e-10
-8.06555e-10
6.39268e-10
-3.35399e-09
5.10103e-09
-7.76103e-09
1.18217e-08
-1.41202e-08
2.00959e-08
-2.24906e-08
2.93793e-08
-3.28955e-08
3.92286e-08
-4.5323e-08
4.92855e-08
-5.97278e-08
5.92651e-08
-7.60352e-08
6.89426e-08
-9.41444e-08
7.8142e-08
-1.13932e-07
8.67279e-08
-1.35258e-07
9.45972e-08
-1.57966e-07
1.01674e-07
-1.81888e-07
1.07903e-07
-2.06851e-07
1.13249e-07
-2.32673e-07
1.1769e-07
-2.5917e-07
1.21214e-07
-2.86156e-07
1.23823e-07
-3.13446e-07
1.25523e-07
-3.40858e-07
1.2633e-07
-3.6821e-07
1.26262e-07
-3.95328e-07
1.25345e-07
-4.22039e-07
1.23607e-07
-4.48179e-07
1.21078e-07
-4.7359e-07
1.17792e-07
-4.98119e-07
1.13786e-07
-5.21624e-07
1.09097e-07
-5.43968e-07
1.03764e-07
-5.65024e-07
9.7827e-08
-5.84673e-07
9.13286e-08
-6.02805e-07
8.43111e-08
-6.1932e-07
7.68179e-08
-6.34125e-07
6.88934e-08
-6.47139e-07
6.05828e-08
-6.5829e-07
5.19321e-08
-6.67517e-07
4.2988e-08
-6.74766e-07
3.37981e-08
-6.79997e-07
2.44106e-08
-6.83178e-07
1.48744e-08
-6.84289e-07
5.23954e-09
-6.83321e-07
-4.44368e-09
-6.80273e-07
-1.4124e-08
-6.75159e-07
-2.37495e-08
-6.68002e-07
-3.32678e-08
-6.58836e-07
-4.26259e-08
-6.47707e-07
-5.17704e-08
-6.34671e-07
-6.06475e-08
-6.19799e-07
-6.92034e-08
-6.03168e-07
-7.73843e-08
-5.8487e-07
-8.51368e-08
-5.65007e-07
-9.24076e-08
-5.43692e-07
-9.91445e-08
-5.21047e-07
-1.05296e-07
-4.97206e-07
-1.10813e-07
-4.72313e-07
-1.15647e-07
-4.46519e-07
-1.19752e-07
-4.19987e-07
-1.23085e-07
-3.92884e-07
-1.25606e-07
-3.65388e-07
-1.27278e-07
-3.3768e-07
-1.2807e-07
-3.09947e-07
-1.27954e-07
-2.82381e-07
-1.26908e-07
-2.55174e-07
-1.24918e-07
-2.28519e-07
-1.21977e-07
-2.02611e-07
-1.18085e-07
-1.77637e-07
-1.13253e-07
-1.53781e-07
-1.07504e-07
-1.31219e-07
-1.00874e-07
-1.10114e-07
-9.34147e-08
-9.06172e-08
-8.51965e-08
-7.28608e-08
-7.63116e-08
-5.69563e-08
-6.6879e-08
-4.29898e-08
-5.70496e-08
-3.10192e-08
-4.70126e-08
-2.10696e-08
-3.70039e-08
-1.31312e-08
-2.73161e-08
-7.15669e-09
-1.83103e-08
-3.06142e-09
-1.04274e-08
-7.25271e-10
-4.20207e-09
-3.2112e-10
-1.05699e-09
1.69625e-09
-4.27044e-09
8.31447e-09
-9.68931e-09
1.72406e-08
-1.73505e-08
2.7757e-08
-2.72685e-08
3.92974e-08
-3.94313e-08
5.13913e-08
-5.37983e-08
6.36525e-08
-7.03012e-08
7.57681e-08
-8.88457e-08
8.7487e-08
-1.09314e-07
9.86102e-08
-1.31568e-07
1.08982e-07
-1.55451e-07
1.18481e-07
-1.80796e-07
1.27018e-07
-2.0742e-07
1.34528e-07
-2.35136e-07
1.40965e-07
-2.63748e-07
1.46302e-07
-2.93059e-07
1.50525e-07
-3.22869e-07
1.53633e-07
-3.5298e-07
1.55633e-07
-3.83193e-07
1.56543e-07
-4.13314e-07
1.56384e-07
-4.43154e-07
1.55186e-07
-4.72529e-07
1.52981e-07
-5.0126e-07
1.49809e-07
-5.29176e-07
1.45708e-07
-5.56112e-07
1.40723e-07
-5.81914e-07
1.34899e-07
-6.06435e-07
1.28284e-07
-6.29535e-07
1.20927e-07
-6.51087e-07
1.1288e-07
-6.70971e-07
1.04195e-07
-6.89078e-07
9.49245e-08
-7.05308e-07
8.51238e-08
-7.19573e-07
7.48483e-08
-7.31796e-07
6.41545e-08
-7.41908e-07
5.31001e-08
-7.49853e-07
4.17436e-08
-7.55587e-07
3.01443e-08
-7.59076e-07
1.83628e-08
-7.60296e-07
6.46018e-09
-7.59239e-07
-5.50123e-09
-7.55904e-07
-1.74585e-08
-7.50306e-07
-2.93477e-08
-7.42469e-07
-4.11044e-08
-7.32432e-07
-5.26634e-08
-7.20243e-07
-6.39591e-08
-7.05965e-07
-7.49256e-08
-6.89672e-07
-8.54968e-08
-6.71449e-07
-9.56068e-08
-6.51396e-07
-1.0519e-07
-6.29623e-07
-1.14181e-07
-6.06251e-07
-1.22516e-07
-5.81414e-07
-1.30133e-07
-5.55256e-07
-1.36971e-07
-5.27933e-07
-1.42971e-07
-4.99608e-07
-1.48077e-07
-4.70457e-07
-1.52237e-07
-4.4066e-07
-1.55402e-07
-4.10409e-07
-1.57529e-07
-3.79901e-07
-1.58579e-07
-3.49335e-07
-1.58519e-07
-3.1892e-07
-1.57324e-07
-2.88861e-07
-1.54977e-07
-2.59369e-07
-1.51469e-07
-2.30649e-07
-1.46804e-07
-2.02907e-07
-1.40995e-07
-1.76339e-07
-1.34072e-07
-1.51136e-07
-1.26077e-07
-1.27475e-07
-1.17075e-07
-1.05521e-07
-1.0715e-07
-8.54214e-08
-9.64116e-08
-6.73016e-08
-8.49989e-08
-5.12646e-08
-7.30866e-08
-3.73866e-08
-6.08906e-08
-2.57147e-08
-4.86758e-08
-1.62653e-08
-3.67654e-08
-9.02415e-09
-2.55515e-08
-3.94749e-09
-1.5504e-08
-9.6707e-10
-7.1825e-09
-1.28818e-09
-1.29952e-09
2.99578e-09
-5.16805e-09
1.2183e-08
-1.15909e-08
2.36634e-08
-2.05512e-08
3.67173e-08
-3.20185e-08
5.07647e-08
-4.59434e-08
6.53162e-08
-6.22543e-08
7.99635e-08
-8.08572e-08
9.43709e-08
-1.01636e-07
1.08266e-07
-1.24453e-07
1.21427e-07
-1.49154e-07
1.33682e-07
-1.75567e-07
1.44894e-07
-2.03509e-07
1.5496e-07
-2.32786e-07
1.63804e-07
-2.63194e-07
1.71373e-07
-2.94526e-07
1.77634e-07
-3.26571e-07
1.8257e-07
-3.59117e-07
1.86178e-07
-3.9195e-07
1.88467e-07
-4.24862e-07
1.89454e-07
-4.57644e-07
1.89166e-07
-4.90096e-07
1.87637e-07
-5.2202e-07
1.84905e-07
-5.53225e-07
1.81014e-07
-5.8353e-07
1.76013e-07
-6.1276e-07
1.69952e-07
-6.40747e-07
1.62886e-07
-6.67335e-07
1.54872e-07
-6.92377e-07
1.45969e-07
-7.15734e-07
1.36237e-07
-7.37279e-07
1.2574e-07
-7.56895e-07
1.14541e-07
-7.74476e-07
1.02705e-07
-7.89927e-07
9.02997e-08
-8.03165e-07
7.73926e-08
-8.14118e-07
6.40528e-08
-8.22725e-07
5.03507e-08
-8.28939e-07
3.63576e-08
-8.32722e-07
2.21461e-08
-8.34052e-07
7.78978e-09
-8.32916e-07
-6.63667e-09
-8.29317e-07
-2.10576e-08
-8.23268e-07
-3.53964e-08
-8.14797e-07
-4.95757e-08
-8.03943e-07
-6.35173e-08
-7.9076e-07
-7.71426e-08
-7.75313e-07
-9.03725e-08
-7.57682e-07
-1.03128e-07
-7.37958e-07
-1.1533e-07
-7.16248e-07
-1.269e-07
-6.92668e-07
-1.37761e-07
-6.67349e-07
-1.47835e-07
-6.40433e-07
-1.57049e-07
-6.12074e-07
-1.6533e-07
-5.82437e-07
-1.72607e-07
-5.51699e-07
-1.78815e-07
-5.20044e-07
-1.83892e-07
-4.87668e-07
-1.87778e-07
-4.54773e-07
-1.90424e-07
-4.21569e-07
-1.91783e-07
-3.8827e-07
-1.91818e-07
-3.55096e-07
-1.90498e-07
-3.2227e-07
-1.87804e-07
-2.90012e-07
-1.83727e-07
-2.58546e-07
-1.78271e-07
-2.28087e-07
-1.71453e-07
-1.9885e-07
-1.63309e-07
-1.71036e-07
-1.53891e-07
-1.4484e-07
-1.43271e-07
-1.2044e-07
-1.3155e-07
-9.79994e-08
-1.18853e-07
-7.76603e-08
-1.05338e-07
-5.95443e-08
-9.12025e-08
-4.37488e-08
-7.66861e-08
-3.03451e-08
-6.20794e-08
-1.93788e-08
-4.77317e-08
-1.08701e-08
-3.40602e-08
-4.81711e-09
-2.15571e-08
-1.20157e-09
-1.0798e-08
-2.48974e-09
-1.53329e-09
4.52909e-09
-6.04133e-09
1.6691e-08
-1.34522e-08
3.10744e-08
-2.36983e-08
4.69633e-08
-3.67049e-08
6.37713e-08
-5.23846e-08
8.0996e-08
-7.06338e-08
9.82126e-08
-9.13304e-08
1.15068e-07
-1.14334e-07
1.31269e-07
-1.39488e-07
1.46581e-07
-1.66617e-07
1.60812e-07
-1.95535e-07
1.73813e-07
-2.26043e-07
1.85468e-07
-2.5793e-07
1.95692e-07
-2.90982e-07
2.04425e-07
-3.24977e-07
2.11629e-07
-3.59691e-07
2.17285e-07
-3.949e-07
2.21387e-07
-4.30378e-07
2.23945e-07
-4.65904e-07
2.2498e-07
-5.01259e-07
2.24522e-07
-5.3623e-07
2.22608e-07
-5.70608e-07
2.19283e-07
-6.04192e-07
2.14599e-07
-6.3679e-07
2.08611e-07
-6.68217e-07
2.01378e-07
-6.98296e-07
1.92965e-07
-7.26861e-07
1.83438e-07
-7.53757e-07
1.72865e-07
-7.78837e-07
1.61317e-07
-8.01967e-07
1.4887e-07
-8.23023e-07
1.35596e-07
-8.41893e-07
1.21575e-07
-8.58475e-07
1.06883e-07
-8.72683e-07
9.16004e-08
-8.8444e-07
7.58092e-08
-8.93681e-07
5.95919e-08
-9.00356e-07
4.30324e-08
-9.04426e-07
2.62163e-08
-9.05866e-07
9.23004e-09
-9.04664e-07
-7.8384e-09
-9.00822e-07
-2.49e-08
-8.94354e-07
-4.18647e-08
-8.85288e-07
-5.86415e-08
-8.73667e-07
-7.51384e-08
-8.59546e-07
-9.12631e-08
-8.42996e-07
-1.06923e-07
-8.24099e-07
-1.22024e-07
-8.02954e-07
-1.36476e-07
-7.79671e-07
-1.50184e-07
-7.54373e-07
-1.63058e-07
-7.272e-07
-1.75009e-07
-6.98301e-07
-1.85949e-07
-6.67838e-07
-1.95792e-07
-6.35986e-07
-2.04459e-07
-6.02932e-07
-2.1187e-07
-5.6887e-07
-2.17953e-07
-5.34007e-07
-2.22641e-07
-4.98558e-07
-2.25874e-07
-4.62742e-07
-2.27598e-07
-4.26789e-07
-2.27771e-07
-3.9093e-07
-2.26357e-07
-3.554e-07
-2.23334e-07
-3.20435e-07
-2.18692e-07
-2.86269e-07
-2.12436e-07
-2.53135e-07
-2.04588e-07
-2.21259e-07
-1.95185e-07
-1.90859e-07
-1.84291e-07
-1.62143e-07
-1.71987e-07
-1.35306e-07
-1.58387e-07
-1.10528e-07
-1.43631e-07
-8.79699e-08
-1.27896e-07
-6.77738e-08
-1.11399e-07
-5.00599e-08
-9.44e-08
-3.49258e-08
-7.72134e-08
-2.24476e-08
-6.02099e-08
-1.26809e-08
-4.3827e-08
-5.66462e-09
-2.85733e-08
-1.42781e-09
-1.50349e-08
-3.91755e-09
-1.75829e-09
6.28739e-09
-6.88829e-09
2.1821e-08
-1.52669e-08
3.9453e-08
-2.67791e-08
5.84755e-08
-4.13077e-08
7.82999e-08
-5.87276e-08
9.84159e-08
-7.8902e-08
1.18387e-07
-1.0168e-07
1.37846e-07
-1.26897e-07
1.56486e-07
-1.54372e-07
1.74056e-07
-1.83913e-07
1.90352e-07
-2.15313e-07
2.05213e-07
-2.48357e-07
2.18512e-07
-2.82822e-07
2.30157e-07
-3.18478e-07
2.40081e-07
-3.55089e-07
2.48241e-07
-3.9242e-07
2.54616e-07
-4.30233e-07
2.592e-07
-4.68293e-07
2.62005e-07
-5.06365e-07
2.63052e-07
-5.4422e-07
2.62376e-07
-5.81633e-07
2.60021e-07
-6.18387e-07
2.56037e-07
-6.54271e-07
2.50483e-07
-6.89082e-07
2.43422e-07
-7.22626e-07
2.34922e-07
-7.54719e-07
2.25058e-07
-7.85186e-07
2.13905e-07
-8.13863e-07
2.01542e-07
-8.40598e-07
1.88053e-07
-8.6525e-07
1.73521e-07
-8.87688e-07
1.58034e-07
-9.07794e-07
1.41681e-07
-9.25464e-07
1.24552e-07
-9.40604e-07
1.0674e-07
-9.53135e-07
8.83396e-08
-9.62988e-07
6.94455e-08
-9.70111e-07
5.01555e-08
-9.74464e-07
3.05685e-08
-9.76018e-07
1.07847e-08
-9.74762e-07
-9.09417e-09
-9.70697e-07
-2.89651e-08
-9.63838e-07
-4.87238e-08
-9.54215e-07
-6.82651e-08
-9.41871e-07
-8.74826e-08
-9.26864e-07
-1.0627e-07
-9.09268e-07
-1.24519e-07
-8.8917e-07
-1.42123e-07
-8.66671e-07
-1.58974e-07
-8.41888e-07
-1.74967e-07
-8.1495e-07
-1.89996e-07
-7.86002e-07
-2.03957e-07
-7.552e-07
-2.1675e-07
-7.22716e-07
-2.28277e-07
-6.88731e-07
-2.38443e-07
-6.53441e-07
-2.4716e-07
-6.17051e-07
-2.54343e-07
-5.79778e-07
-2.59915e-07
-5.41846e-07
-2.63806e-07
-5.03487e-07
-2.65957e-07
-4.64942e-07
-2.66316e-07
-4.26453e-07
-2.64845e-07
-3.8827e-07
-2.61517e-07
-3.5064e-07
-2.56322e-07
-3.13812e-07
-2.49264e-07
-2.78031e-07
-2.40368e-07
-2.43539e-07
-2.29678e-07
-2.10569e-07
-2.17261e-07
-1.79345e-07
-2.03212e-07
-1.50079e-07
-1.87653e-07
-1.22968e-07
-1.70741e-07
-9.81944e-08
-1.52669e-07
-7.59218e-08
-1.33671e-07
-5.62946e-08
-1.14027e-07
-3.94383e-08
-9.40697e-08
-2.546e-08
-7.41883e-08
-1.44504e-08
-5.48366e-08
-6.48816e-09
-3.65355e-08
-1.6458e-09
-1.98772e-08
-5.56336e-09
-1.97498e-09
8.26236e-09
-7.70915e-09
2.75551e-08
-1.70335e-08
4.87774e-08
-2.97892e-08
7.12312e-08
-4.58183e-08
9.4329e-08
-6.49591e-08
1.17557e-07
-8.70416e-08
1.4047e-07
-1.11886e-07
1.6269e-07
-1.393e-07
1.839e-07
-1.69081e-07
2.03837e-07
-2.01014e-07
2.22286e-07
-2.34876e-07
2.39075e-07
-2.70434e-07
2.5407e-07
-3.07448e-07
2.67171e-07
-3.45674e-07
2.78307e-07
-3.84864e-07
2.87431e-07
-4.2477e-07
2.94521e-07
-4.6514e-07
2.99571e-07
-5.05729e-07
3.02593e-07
-5.4629e-07
3.03614e-07
-5.86586e-07
3.02672e-07
-6.2638e-07
2.99816e-07
-6.65446e-07
2.95103e-07
-7.03564e-07
2.886e-07
-7.40522e-07
2.8038e-07
-7.76118e-07
2.70518e-07
-8.1016e-07
2.591e-07
-8.42466e-07
2.46211e-07
-8.72865e-07
2.31942e-07
-9.01199e-07
2.16387e-07
-9.27319e-07
1.99642e-07
-9.51092e-07
1.81807e-07
-9.72393e-07
1.62982e-07
-9.91113e-07
1.43273e-07
-1.00716e-06
1.22783e-07
-1.02044e-06
1.01621e-07
-1.03089e-06
7.98953e-08
-1.03845e-06
5.77178e-08
-1.04308e-06
3.5201e-08
-1.04476e-06
1.24594e-08
-1.04346e-06
-1.0391e-08
-1.03919e-06
-3.32326e-08
-1.03197e-06
-5.59465e-08
-1.02182e-06
-7.84125e-08
-1.00879e-06
-1.0051e-07
-9.92948e-07
-1.22116e-07
-9.74358e-07
-1.43109e-07
-9.53114e-07
-1.63366e-07
-9.29322e-07
-1.82766e-07
-9.03103e-07
-2.01186e-07
-8.74591e-07
-2.18508e-07
-8.43935e-07
-2.34613e-07
-8.113e-07
-2.49385e-07
-7.76863e-07
-2.62714e-07
-7.40814e-07
-2.74493e-07
-7.03355e-07
-2.84618e-07
-6.64702e-07
-2.92996e-07
-6.25079e-07
-2.99537e-07
-5.84722e-07
-3.04163e-07
-5.43874e-07
-3.06805e-07
-5.02785e-07
-3.07406e-07
-4.6171e-07
-3.05919e-07
-4.2091e-07
-3.02317e-07
-3.80647e-07
-2.96585e-07
-3.41183e-07
-2.88729e-07
-3.02776e-07
-2.78774e-07
-2.65684e-07
-2.6677e-07
-2.30156e-07
-2.52789e-07
-1.96431e-07
-2.36936e-07
-1.64741e-07
-2.19343e-07
-1.35303e-07
-2.0018e-07
-1.08318e-07
-1.79654e-07
-8.3975e-08
-1.58015e-07
-6.24431e-08
-1.35559e-07
-4.38762e-08
-1.12637e-07
-2.84127e-08
-8.96517e-08
-1.6178e-08
-6.70713e-08
-7.28821e-09
-4.54253e-08
-1.85608e-09
-2.53093e-08
-7.41945e-09
-2.1841e-09
1.04464e-08
-8.50546e-09
3.38765e-08
-1.87537e-08
5.90257e-08
-3.27294e-08
8.52068e-08
-5.02361e-08
1.11836e-07
-7.10763e-08
1.38397e-07
-9.50473e-08
1.64441e-07
-1.21939e-07
1.89582e-07
-1.51534e-07
2.13495e-07
-1.83604e-07
2.35907e-07
-2.17913e-07
2.56595e-07
-2.54218e-07
2.7538e-07
-2.92268e-07
2.9212e-07
-3.31808e-07
3.06711e-07
-3.72578e-07
3.19077e-07
-4.14316e-07
3.2917e-07
-4.56761e-07
3.36965e-07
-4.9965e-07
3.4246e-07
-5.42726e-07
3.45669e-07
-5.85732e-07
3.46621e-07
-6.2842e-07
3.45359e-07
-6.70545e-07
3.4194e-07
-7.1187e-07
3.36429e-07
-7.52168e-07
3.28898e-07
-7.91218e-07
3.1943e-07
-8.28812e-07
3.08112e-07
-8.64749e-07
2.95037e-07
-8.98842e-07
2.80304e-07
-9.30914e-07
2.64014e-07
-9.608e-07
2.46272e-07
-9.88346e-07
2.27188e-07
-1.01341e-06
2.06874e-07
-1.03588e-06
1.85444e-07
-1.05562e-06
1.63014e-07
-1.07254e-06
1.39704e-07
-1.08655e-06
1.15635e-07
-1.09759e-06
9.09295e-08
-1.10558e-06
6.57139e-08
-1.1105e-06
4.01149e-08
-1.1123e-06
1.42616e-08
-1.11097e-06
-1.1715e-08
-1.10652e-06
-3.76824e-08
-1.09896e-06
-6.35067e-08
-1.08832e-06
-8.90522e-08
-1.07465e-06
-1.14182e-07
-1.05801e-06
-1.3876e-07
-1.03847e-06
-1.62647e-07
-1.01613e-06
-1.85705e-07
-9.91098e-07
-2.07798e-07
-9.63498e-07
-2.28786e-07
-9.33469e-07
-2.48537e-07
-9.01165e-07
-2.66917e-07
-8.66756e-07
-2.83795e-07
-8.30424e-07
-2.99046e-07
-7.92368e-07
-3.12549e-07
-7.52796e-07
-3.2419e-07
-7.11932e-07
-3.3386e-07
-6.7001e-07
-3.41459e-07
-6.27274e-07
-3.469e-07
-5.83977e-07
-3.50102e-07
-5.40381e-07
-3.51002e-07
-4.96753e-07
-3.49548e-07
-4.53365e-07
-3.45705e-07
-4.10491e-07
-3.39459e-07
-3.68407e-07
-3.30812e-07
-3.27389e-07
-3.19793e-07
-2.87706e-07
-3.06452e-07
-2.49626e-07
-2.9087e-07
-2.13406e-07
-2.73156e-07
-1.79295e-07
-2.53454e-07
-1.47532e-07
-2.31943e-07
-1.18341e-07
-2.08845e-07
-9.19336e-08
-1.84422e-07
-6.85062e-08
-1.58987e-07
-4.82413e-08
-1.32901e-07
-3.13084e-08
-1.06585e-07
-1.78663e-08
-8.05134e-08
-8.06678e-09
-5.52249e-08
-2.05951e-09
-3.13166e-08
-9.47896e-09
-2.38653e-09
1.2833e-08
-9.27955e-09
4.07695e-08
-2.04311e-08
7.01773e-08
-3.56039e-08
1.0038e-07
-5.45654e-08
1.30797e-07
-7.70831e-08
1.60915e-07
-1.02922e-07
1.9028e-07
-1.31844e-07
2.18503e-07
-1.63602e-07
2.45253e-07
-1.97944e-07
2.70249e-07
-2.34613e-07
2.93264e-07
-2.73344e-07
3.14111e-07
-3.13869e-07
3.32644e-07
-3.55914e-07
3.48756e-07
-3.99205e-07
3.62368e-07
-4.43466e-07
3.73431e-07
-4.88422e-07
3.81921e-07
-5.33799e-07
3.87837e-07
-5.79327e-07
3.91197e-07
-6.24742e-07
3.92035e-07
-6.69782e-07
3.904e-07
-7.14195e-07
3.86354e-07
-7.57737e-07
3.7997e-07
-8.0017e-07
3.71331e-07
-8.41268e-07
3.60528e-07
-8.80815e-07
3.47658e-07
-9.18604e-07
3.32826e-07
-9.54441e-07
3.16141e-07
-9.88145e-07
2.97717e-07
-1.01954e-06
2.77671e-07
-1.04848e-06
2.56126e-07
-1.07481e-06
2.33205e-07
-1.09841e-06
2.09038e-07
-1.11915e-06
1.83754e-07
-1.13693e-06
1.57485e-07
-1.15166e-06
1.30368e-07
-1.16327e-06
1.0254e-07
-1.1717e-06
7.41416e-08
-1.1769e-06
4.53135e-08
-1.17884e-06
1.62004e-08
-1.1775e-06
-1.30516e-08
-1.17289e-06
-4.22946e-08
-1.16502e-06
-7.13791e-08
-1.15391e-06
-1.00154e-07
-1.13963e-06
-1.28466e-07
-1.12223e-06
-1.56163e-07
-1.10178e-06
-1.83091e-07
-1.07839e-06
-2.09095e-07
-1.05217e-06
-2.34021e-07