/*--------------------------------*- C++ -*----------------------------------*\
  =========                 |
  \\      /  F ield         | OpenFOAM: The Open Source CFD Toolbox
   \\    /   O peration     | Website:  https://openfoam.org
    \\  /    A nd           | Version:  7
     \\/     M anipulation  |
\*---------------------------------------------------------------------------*/
FoamFile
{
    version     2.0;
    format      ascii;
    class       volVectorField;
    location    "0.425";
    object      U;
}
// * * * * * * * * * * * * * * * * * * * * * * * * * * * * * * * * * * * * * //

dimensions      [0 1 -1 0 0 0 0];

internalField   nonuniform List<vector> 
6400
(
(7.19177e-06 -7.30684e-06 0)
(2.97183e-05 -1.44744e-05 0)
(5.92558e-05 -1.41859e-05 0)
(8.0586e-05 -9.73791e-06 0)
(8.54391e-05 -3.4284e-06 0)
(7.05759e-05 3.54264e-06 0)
(3.4874e-05 1.05616e-05 0)
(-2.16349e-05 1.73109e-05 0)
(-9.81964e-05 2.36285e-05 0)
(-0.00019362 2.94322e-05 0)
(-0.000306461 3.4683e-05 0)
(-0.000435122 3.93662e-05 0)
(-0.000577924 4.34811e-05 0)
(-0.000733148 4.70351e-05 0)
(-0.000899064 5.004e-05 0)
(-0.00107396 5.25105e-05 0)
(-0.00125613 5.44632e-05 0)
(-0.00144395 5.59169e-05 0)
(-0.0016358 5.68911e-05 0)
(-0.00183012 5.74062e-05 0)
(-0.00202543 5.74825e-05 0)
(-0.00222029 5.71408e-05 0)
(-0.00241333 5.64013e-05 0)
(-0.00260323 5.52847e-05 0)
(-0.00278875 5.38115e-05 0)
(-0.00296871 5.20021e-05 0)
(-0.00314199 4.98767e-05 0)
(-0.00330756 4.74555e-05 0)
(-0.00346442 4.47584e-05 0)
(-0.00361168 4.18053e-05 0)
(-0.00374848 3.86163e-05 0)
(-0.00387405 3.52111e-05 0)
(-0.00398768 3.16098e-05 0)
(-0.00408874 2.78324e-05 0)
(-0.00417665 2.38992e-05 0)
(-0.00425093 1.98306e-05 0)
(-0.00431113 1.56474e-05 0)
(-0.00435691 1.13706e-05 0)
(-0.00438799 7.02172e-06 0)
(-0.00440416 2.62252e-06 0)
(-0.0044053 -1.80469e-06 0)
(-0.00439136 -6.23717e-06 0)
(-0.00436236 -1.06517e-05 0)
(-0.00431842 -1.50245e-05 0)
(-0.00425972 -1.93315e-05 0)
(-0.00418655 -2.3548e-05 0)
(-0.00409926 -2.7649e-05 0)
(-0.0039983 -3.16089e-05 0)
(-0.0038842 -3.54022e-05 0)
(-0.00375759 -3.90026e-05 0)
(-0.00361916 -4.23843e-05 0)
(-0.00346972 -4.5521e-05 0)
(-0.00331014 -4.83866e-05 0)
(-0.00314141 -5.09553e-05 0)
(-0.00296456 -5.32014e-05 0)
(-0.00278073 -5.50998e-05 0)
(-0.00259115 -5.6626e-05 0)
(-0.0023971 -5.77564e-05 0)
(-0.00219996 -5.84682e-05 0)
(-0.00200116 -5.87397e-05 0)
(-0.00180221 -5.85503e-05 0)
(-0.00160466 -5.78811e-05 0)
(-0.00141013 -5.67146e-05 0)
(-0.00122028 -5.50354e-05 0)
(-0.00103679 -5.283e-05 0)
(-0.000861401 -5.00875e-05 0)
(-0.000695829 -4.67996e-05 0)
(-0.000541808 -4.29615e-05 0)
(-0.000401046 -3.85727e-05 0)
(-0.000275206 -3.36394e-05 0)
(-0.000165873 -2.81765e-05 0)
(-7.45067e-05 -2.22138e-05 0)
(-2.37593e-06 -1.58051e-05 0)
(4.95503e-05 -9.04795e-06 0)
(8.07771e-05 -2.12133e-06 0)
(9.15689e-05 4.64074e-06 0)
(8.3372e-05 1.06126e-05 0)
(5.97535e-05 1.45976e-05 0)
(2.92259e-05 1.4352e-05 0)
(6.87098e-06 6.86906e-06 0)
(1.44211e-05 -2.98894e-05 0)
(5.1487e-05 -5.15409e-05 0)
(8.97654e-05 -4.40917e-05 0)
(0.000103505 -1.91057e-05 0)
(7.69933e-05 1.53072e-05 0)
(2.37703e-06 5.41194e-05 0)
(-0.000124043 9.42527e-05 0)
(-0.000303184 0.000133819 0)
(-0.000534 0.000171659 0)
(-0.000814128 0.000207057 0)
(-0.00114033 0.000239572 0)
(-0.00150878 0.000268946 0)
(-0.00191532 0.000295032 0)
(-0.00235553 0.000317766 0)
(-0.00282489 0.000337138 0)
(-0.00331885 0.000353174 0)
(-0.00383286 0.000365932 0)
(-0.00436245 0.000375487 0)
(-0.0049032 0.000381933 0)
(-0.00545085 0.000385372 0)
(-0.00600124 0.000385917 0)
(-0.00655038 0.000383685 0)
(-0.00709441 0.000378798 0)
(-0.00762966 0.000371383 0)
(-0.00815262 0.000361566 0)
(-0.00865996 0.000349479 0)
(-0.00914854 0.000335252 0)
(-0.00961539 0.000319018 0)
(-0.0100577 0.000300909 0)
(-0.010473 0.000281059 0)
(-0.0108587 0.000259604 0)
(-0.0112128 0.000236677 0)
(-0.0115331 0.000212417 0)
(-0.011818 0.000186961 0)
(-0.0120657 0.000160449 0)
(-0.0122749 0.000133022 0)
(-0.0124443 0.000104823 0)
(-0.012573 7.59981e-05 0)
(-0.0126602 4.66947e-05 0)
(-0.0127053 1.70635e-05 0)
(-0.012708 -1.27424e-05 0)
(-0.0126681 -4.25668e-05 0)
(-0.0125857 -7.22509e-05 0)
(-0.0124613 -0.000101633 0)
(-0.0122952 -0.000130549 0)
(-0.0120884 -0.000158832 0)
(-0.0118418 -0.000186314 0)
(-0.0115568 -0.000212823 0)
(-0.0112348 -0.000238187 0)
(-0.0108777 -0.000262235 0)
(-0.0104875 -0.000284792 0)
(-0.0100663 -0.000305686 0)
(-0.00961676 -0.000324748 0)
(-0.00914156 -0.000341808 0)
(-0.00864367 -0.000356701 0)
(-0.00812629 -0.000369266 0)
(-0.00759283 -0.000379349 0)
(-0.00704692 -0.0003868 0)
(-0.00649237 -0.000391479 0)
(-0.0059332 -0.000393255 0)
(-0.00537356 -0.000392009 0)
(-0.00481778 -0.000387632 0)
(-0.0042703 -0.000380034 0)
(-0.00373566 -0.000369139 0)
(-0.00321848 -0.000354891 0)
(-0.00272341 -0.000337259 0)
(-0.00225508 -0.000316241 0)
(-0.00181809 -0.000291868 0)
(-0.00141687 -0.000264218 0)
(-0.00105569 -0.000233431 0)
(-0.000738465 -0.000199726 0)
(-0.000468673 -0.000163445 0)
(-0.000249103 -0.000125105 0)
(-8.15832e-05 -8.54969e-05 0)
(3.34582e-05 -4.58489e-05 0)
(9.76095e-05 -8.09823e-06 0)
(0.000115254 2.46691e-05 0)
(9.4865e-05 4.75032e-05 0)
(5.26124e-05 5.25682e-05 0)
(1.43489e-05 2.92044e-05 0)
(1.42762e-05 -5.94498e-05 0)
(4.45351e-05 -8.99228e-05 0)
(6.12373e-05 -6.04773e-05 0)
(3.55748e-05 6.71808e-06 0)
(-5.08216e-05 9.62468e-05 0)
(-0.00020817 0.000197453 0)
(-0.000441803 0.000303107 0)
(-0.000753429 0.00040837 0)
(-0.00114202 0.00051002 0)
(-0.00160455 0.000605914 0)
(-0.00213662 0.000694635 0)
(-0.00273284 0.000775268 0)
(-0.00338714 0.000847243 0)
(-0.00409302 0.000910239 0)
(-0.00484372 0.000964111 0)
(-0.00563232 0.00100884 0)
(-0.0064519 0.00104452 0)
(-0.00729553 0.00107129 0)
(-0.00815642 0.00108937 0)
(-0.0090279 0.001099 0)
(-0.00990349 0.00110047 0)
(-0.0107769 0.00109409 0)
(-0.0116421 0.00108017 0)
(-0.0124932 0.00105907 0)
(-0.0133247 0.00103112 0)
(-0.0141314 0.000996699 0)
(-0.0149082 0.00095616 0)
(-0.0156505 0.00090988 0)
(-0.0163537 0.000858235 0)
(-0.0170139 0.000801604 0)
(-0.0176271 0.000740372 0)
(-0.0181899 0.000674928 0)
(-0.018699 0.000605665 0)
(-0.0191516 0.000532978 0)
(-0.0195451 0.000457271 0)
(-0.0198773 0.00037895 0)
(-0.0201463 0.000298429 0)
(-0.0203504 0.000216128 0)
(-0.0204885 0.000132472 0)
(-0.0205596 4.7897e-05 0)
(-0.0205633 -3.71575e-05 0)
(-0.0204993 -0.000122242 0)
(-0.0203677 -0.000206902 0)
(-0.0201692 -0.000290672 0)
(-0.0199047 -0.000373082 0)
(-0.0195754 -0.000453657 0)
(-0.0191831 -0.000531915 0)
(-0.0187297 -0.00060737 0)
(-0.0182177 -0.000679533 0)
(-0.01765 -0.000747915 0)
(-0.0170297 -0.000812028 0)
(-0.0163605 -0.000871385 0)
(-0.0156462 -0.000925506 0)
(-0.0148914 -0.00097392 0)
(-0.0141006 -0.00101617 0)
(-0.0132788 -0.00105179 0)
(-0.0124317 -0.00108038 0)
(-0.0115647 -0.00110151 0)
(-0.0106839 -0.00111481 0)
(-0.00979568 -0.00111992 0)
(-0.00890648 -0.00111653 0)
(-0.00802306 -0.00110436 0)
(-0.00715235 -0.00108319 0)
(-0.00630138 -0.00105283 0)
(-0.00547729 -0.00101318 0)
(-0.0046872 -0.00096421 0)
(-0.00393819 -0.000905977 0)
(-0.0032372 -0.000838659 0)
(-0.00259089 -0.000762577 0)
(-0.00200553 -0.000678242 0)
(-0.00148683 -0.00058642 0)
(-0.00103965 -0.000488224 0)
(-0.000667784 -0.000385262 0)
(-0.000373475 -0.000279854 0)
(-0.0001569 -0.000175364 0)
(-1.54332e-05 -7.67097e-05 0)
(5.71735e-05 8.90861e-06 0)
(7.19503e-05 7.10637e-05 0)
(4.79802e-05 9.49293e-05 0)
(1.46777e-05 5.97949e-05 0)
(1.00495e-05 -8.12029e-05 0)
(2.03911e-05 -0.0001044 0)
(-4.3031e-06 -3.51688e-05 0)
(-9.08079e-05 9.36626e-05 0)
(-0.00025727 0.000259329 0)
(-0.000514635 0.000445282 0)
(-0.000868813 0.000639658 0)
(-0.00132176 0.000834098 0)
(-0.00187232 0.00102275 0)
(-0.00251696 0.00120154 0)
(-0.0032504 0.00136765 0)
(-0.00406603 0.00151917 0)
(-0.00495633 0.00165485 0)
(-0.00591311 0.00177391 0)
(-0.00692779 0.00187595 0)
(-0.00799151 0.00196082 0)
(-0.0090953 0.00202857 0)
(-0.0102302 0.00207941 0)
(-0.0113873 0.00211367 0)
(-0.0125579 0.00213179 0)
(-0.0137335 0.00213425 0)
(-0.0149057 0.0021216 0)
(-0.0160665 0.00209445 0)
(-0.0172082 0.00205342 0)
(-0.0183235 0.00199916 0)
(-0.0194053 0.00193237 0)
(-0.0204469 0.00185373 0)
(-0.021442 0.00176396 0)
(-0.0223848 0.00166378 0)
(-0.0232697 0.00155392 0)
(-0.0240916 0.00143514 0)
(-0.0248458 0.00130817 0)
(-0.025528 0.00117379 0)
(-0.0261344 0.00103277 0)
(-0.0266615 0.000885884 0)
(-0.0271063 0.000733938 0)
(-0.0274663 0.000577733 0)
(-0.0277394 0.000418089 0)
(-0.0279238 0.000255837 0)
(-0.0280185 9.18226e-05 0)
(-0.0280228 -7.30941e-05 0)
(-0.0279363 -0.00023804 0)
(-0.0277594 -0.000402128 0)
(-0.0274928 -0.000564458 0)
(-0.0271378 -0.000724117 0)
(-0.026696 -0.000880182 0)
(-0.0261698 -0.00103172 0)
(-0.0255619 -0.0011778 0)
(-0.0248755 -0.00131746 0)
(-0.0241146 -0.00144978 0)
(-0.0232834 -0.00157381 0)
(-0.0223866 -0.00168861 0)
(-0.0214297 -0.00179328 0)
(-0.0204183 -0.00188689 0)
(-0.0193589 -0.00196859 0)
(-0.018258 -0.00203752 0)
(-0.0171229 -0.00209286 0)
(-0.0159611 -0.00213386 0)
(-0.0147806 -0.0021598 0)
(-0.0135897 -0.00217003 0)
(-0.0123971 -0.00216396 0)
(-0.0112115 -0.00214112 0)
(-0.0100421 -0.0021011 0)
(-0.00889806 -0.00204362 0)
(-0.00778869 -0.00196854 0)
(-0.00672322 -0.00187586 0)
(-0.0057108 -0.00176581 0)
(-0.00476029 -0.0016388 0)
(-0.00388018 -0.0014956 0)
(-0.00307835 -0.00133729 0)
(-0.00236188 -0.00116549 0)
(-0.00173674 -0.000982463 0)
(-0.00120747 -0.000791348 0)
(-0.000776658 -0.000596522 0)
(-0.000444441 -0.000404062 0)
(-0.000207763 -0.000222439 0)
(-5.96194e-05 -6.34422e-05 0)
(1.19411e-05 5.67443e-05 0)
(2.61116e-05 0.00011619 0)
(1.09036e-05 8.38415e-05 0)
(4.01734e-06 -8.70447e-05 0)
(-1.30144e-05 -7.95296e-05 0)
(-9.19789e-05 4.99629e-05 0)
(-0.000253961 0.000259684 0)
(-0.000514805 0.000520238 0)
(-0.00088496 0.000809567 0)
(-0.00137 0.00111127 0)
(-0.00197154 0.00141336 0)
(-0.002688 0.00170713 0)
(-0.00351528 0.00198628 0)
(-0.00444728 0.00224633 0)
(-0.00547637 0.00248414 0)
(-0.00659382 0.00269754 0)
(-0.00779006 0.00288515 0)
(-0.00905497 0.00304615 0)
(-0.0103781 0.00318017 0)
(-0.0117487 0.00328716 0)
(-0.0131561 0.00336736 0)
(-0.0145895 0.0034212 0)
(-0.0160385 0.00344928 0)
(-0.0174927 0.00345233 0)
(-0.018942 0.00343119 0)
(-0.0203767 0.00338677 0)
(-0.0217874 0.00332003 0)
(-0.0231649 0.00323202 0)
(-0.0245009 0.0031238 0)
(-0.0257869 0.00299649 0)
(-0.0270154 0.0028512 0)
(-0.0281791 0.00268911 0)
(-0.0292712 0.00251139 0)
(-0.0302854 0.00231923 0)
(-0.0312159 0.00211386 0)
(-0.0320574 0.00189651 0)
(-0.0328053 0.00166843 0)
(-0.0334553 0.00143089 0)
(-0.0340037 0.00118517 0)
(-0.0344473 0.000932591 0)
(-0.0347836 0.000674474 0)
(-0.0350106 0.00041217 0)
(-0.0351269 0.00014705 0)
(-0.0351315 -0.000119493 0)
(-0.0350242 -0.000386045 0)
(-0.0348054 -0.000651169 0)
(-0.034476 -0.00091341 0)
(-0.0340374 -0.00117129 0)
(-0.033492 -0.00142333 0)
(-0.0328425 -0.00166802 0)
(-0.0320923 -0.00190385 0)
(-0.0312454 -0.0021293 0)
(-0.0303066 -0.00234287 0)
(-0.0292811 -0.00254304 0)
(-0.0281748 -0.00272832 0)
(-0.0269943 -0.00289724 0)
(-0.0257466 -0.00304838 0)
(-0.0244394 -0.00318032 0)
(-0.023081 -0.00329173 0)
(-0.0216801 -0.00338132 0)
(-0.0202459 -0.0034479 0)
(-0.0187882 -0.00349035 0)
(-0.017317 -0.00350767 0)
(-0.0158428 -0.00349896 0)
(-0.0143763 -0.0034635 0)
(-0.0129285 -0.00340071 0)
(-0.0115105 -0.00331021 0)
(-0.0101334 -0.00319185 0)
(-0.00880831 -0.00304574 0)
(-0.00754606 -0.00287234 0)
(-0.00635719 -0.00267246 0)
(-0.00525169 -0.00244741 0)
(-0.00423881 -0.0021991 0)
(-0.00332678 -0.00193022 0)
(-0.00252251 -0.00164443 0)
(-0.00183123 -0.00134672 0)
(-0.00125602 -0.00104381 0)
(-0.000797296 -0.000744719 0)
(-0.000452184 -0.000461612 0)
(-0.000213843 -0.000210792 0)
(-7.06152e-05 -1.38685e-05 0)
(-5.23666e-06 0.000100728 0)
(5.25979e-06 9.31306e-05 0)
(-2.66729e-06 -7.37609e-05 0)
(-5.09306e-05 -7.36941e-06 0)
(-0.00019188 0.000205455 0)
(-0.000438749 0.000516332 0)
(-0.000803653 0.000890321 0)
(-0.00129559 0.0013005 0)
(-0.00191906 0.0017263 0)
(-0.00267478 0.0021522 0)
(-0.00356041 0.00256661 0)
(-0.00457106 0.00296094 0)
(-0.0056998 0.00332887 0)
(-0.00693804 0.00366585 0)
(-0.00827595 0.00396868 0)
(-0.00970277 0.00423521 0)
(-0.011207 0.0044641 0)
(-0.0127769 0.00465466 0)
(-0.0144002 0.00480668 0)
(-0.0160646 0.00492038 0)
(-0.0177579 0.00499626 0)
(-0.019468 0.0050351 0)
(-0.0211829 0.00503788 0)
(-0.0228911 0.00500572 0)
(-0.0245811 0.00493988 0)
(-0.0262422 0.00484174 0)
(-0.0278637 0.00471276 0)
(-0.0294358 0.00455444 0)
(-0.0309488 0.00436839 0)
(-0.0323938 0.00415622 0)
(-0.0337622 0.0039196 0)
(-0.0350463 0.00366025 0)
(-0.0362385 0.0033799 0)
(-0.0373322 0.00308032 0)
(-0.0383212 0.00276329 0)
(-0.0392 0.00243066 0)
(-0.0399635 0.00208426 0)
(-0.0406076 0.00172598 0)
(-0.0411285 0.00135773 0)
(-0.0415233 0.000981448 0)
(-0.0417896 0.000599103 0)
(-0.0419256 0.000212697 0)
(-0.0419305 -0.000175738 0)
(-0.041804 -0.000564139 0)
(-0.0415464 -0.000950412 0)
(-0.0411588 -0.00133244 0)
(-0.0406432 -0.00170808 0)
(-0.0400019 -0.00207516 0)
(-0.0392384 -0.0024315 0)
(-0.0383567 -0.00277492 0)
(-0.0373614 -0.00310321 0)
(-0.036258 -0.00341418 0)
(-0.0350528 -0.00370566 0)
(-0.0337525 -0.0039755 0)
(-0.032365 -0.00422158 0)
(-0.0308983 -0.00444183 0)
(-0.0293614 -0.00463426 0)
(-0.027764 -0.00479693 0)
(-0.0261162 -0.00492804 0)
(-0.0244287 -0.00502586 0)
(-0.0227127 -0.00508883 0)
(-0.0209799 -0.00511554 0)
(-0.0192424 -0.00510478 0)
(-0.0175126 -0.00505553 0)
(-0.0158031 -0.00496705 0)
(-0.0141266 -0.00483887 0)
(-0.0124959 -0.00467088 0)
(-0.0109236 -0.00446336 0)
(-0.0094222 -0.00421706 0)
(-0.00800354 -0.00393331 0)
(-0.00667895 -0.00361411 0)
(-0.00545886 -0.00326234 0)
(-0.00435257 -0.00288191 0)
(-0.0033679 -0.00247811 0)
(-0.00251084 -0.00205791 0)
(-0.00178516 -0.00163049 0)
(-0.00119192 -0.00120791 0)
(-0.000728996 -0.000805882 0)
(-0.00039046 -0.000444939 0)
(-0.000165875 -0.000151534 0)
(-4.13303e-05 4.03917e-05 0)
(-1.09705e-06 8.43082e-05 0)
(-9.44592e-06 -4.01055e-05 0)
(-9.05953e-05 0.000116266 0)
(-0.000297613 0.000437566 0)
(-0.000634875 0.000870918 0)
(-0.00110989 0.00137705 0)
(-0.00172954 0.00192498 0)
(-0.00249661 0.00249042 0)
(-0.00341047 0.00305467 0)
(-0.00446766 0.00360336 0)
(-0.0056623 0.0041256 0)
(-0.00698648 0.00461322 0)
(-0.00843063 0.00506018 0)
(-0.00998388 0.00546214 0)
(-0.0116343 0.00581609 0)
(-0.0133694 0.00612011 0)
(-0.0151759 0.0063731 0)
(-0.0170404 0.00657465 0)
(-0.0189492 0.00672488 0)
(-0.0208888 0.00682439 0)
(-0.0228456 0.00687408 0)
(-0.0248064 0.00687519 0)
(-0.026758 0.00682916 0)
(-0.0286878 0.00673764 0)
(-0.0305836 0.00660241 0)
(-0.0324335 0.0064254 0)
(-0.0342263 0.00620865 0)
(-0.0359513 0.00595426 0)
(-0.0375983 0.00566443 0)
(-0.0391577 0.0053414 0)
(-0.0406205 0.00498748 0)
(-0.0419786 0.00460502 0)
(-0.0432242 0.00419643 0)
(-0.0443503 0.00376413 0)
(-0.0453508 0.00331062 0)
(-0.0462199 0.00283842 0)
(-0.046953 0.00235008 0)
(-0.0475457 0.0018482 0)
(-0.0479948 0.00133544 0)
(-0.0482976 0.000814478 0)
(-0.0484521 0.000288036 0)
(-0.0484574 -0.000241116 0)
(-0.048313 -0.000770169 0)
(-0.0480195 -0.00129628 0)
(-0.0475781 -0.00181656 0)
(-0.0469909 -0.00232809 0)
(-0.0462608 -0.00282795 0)
(-0.0453915 -0.00331317 0)
(-0.0443876 -0.00378078 0)
(-0.0432544 -0.00422781 0)
(-0.0419982 -0.0046513 0)
(-0.0406258 -0.0050483 0)
(-0.0391452 -0.00541592 0)
(-0.0375648 -0.0057513 0)
(-0.035894 -0.00605167 0)
(-0.0341429 -0.00631435 0)
(-0.0323222 -0.00653676 0)
(-0.0304434 -0.00671646 0)
(-0.0285185 -0.0068512 0)
(-0.0265601 -0.00693889 0)
(-0.0245813 -0.0069777 0)
(-0.0225957 -0.00696603 0)
(-0.020617 -0.00690261 0)
(-0.0186593 -0.0067865 0)
(-0.0167369 -0.00661718 0)
(-0.0148639 -0.0063946 0)
(-0.0130544 -0.00611926 0)
(-0.0113221 -0.00579228 0)
(-0.00968018 -0.00541558 0)
(-0.0081412 -0.00499197 0)
(-0.00671669 -0.00452539 0)
(-0.00541695 -0.00402111 0)
(-0.00425078 -0.00348611 0)
(-0.00322509 -0.00292941 0)
(-0.00234455 -0.00236269 0)
(-0.00161123 -0.00180087 0)
(-0.00102424 -0.00126304 0)
(-0.000579139 -0.000773478 0)
(-0.000267412 -0.000362769 0)
(-7.93725e-05 -6.92315e-05 0)
(-7.59315e-06 5.60026e-05 0)
(-1.60561e-05 1.41808e-05 0)
(-0.000130445 0.000293206 0)
(-0.000405202 0.000749562 0)
(-0.000835579 0.00132762 0)
(-0.00142405 0.00198494 0)
(-0.00217488 0.00268727 0)
(-0.00308875 0.00340724 0)
(-0.00416327 0.00412327 0)
(-0.00539353 0.00481849 0)
(-0.00677244 0.00547982 0)
(-0.00829097 0.00609727 0)
(-0.00993848 0.00666332 0)
(-0.011703 0.00717246 0)
(-0.0135717 0.00762079 0)
(-0.0155307 0.00800571 0)
(-0.0175657 0.00832569 0)
(-0.0196621 0.00858008 0)
(-0.0218051 0.00876889 0)
(-0.0239799 0.00889275 0)
(-0.0261716 0.00895272 0)
(-0.0283657 0.00895028 0)
(-0.0305479 0.0088872 0)
(-0.0327044 0.00876552 0)
(-0.0348217 0.0085875 0)
(-0.0368868 0.00835556 0)
(-0.0388874 0.00807227 0)
(-0.0408116 0.00774035 0)
(-0.0426482 0.00736259 0)
(-0.0443866 0.00694188 0)
(-0.0460171 0.00648119 0)
(-0.0475304 0.00598356 0)
(-0.0489182 0.00545209 0)
(-0.0501727 0.00488993 0)
(-0.051287 0.0043003 0)
(-0.052255 0.00368648 0)
(-0.0530712 0.00305177 0)
(-0.0537312 0.00239957 0)
(-0.0542311 0.00173329 0)
(-0.0545681 0.00105643 0)
(-0.0547401 0.000372524 0)
(-0.0547459 -0.000314844 0)
(-0.0545851 -0.00100203 0)
(-0.0542583 -0.00168534 0)
(-0.0537669 -0.00236105 0)
(-0.0531132 -0.00302538 0)
(-0.0523003 -0.00367454 0)
(-0.0513325 -0.00430469 0)
(-0.0502147 -0.00491201 0)
(-0.0489529 -0.00549266 0)
(-0.0475538 -0.00604282 0)
(-0.0460252 -0.0065587 0)
(-0.0443758 -0.00703658 0)
(-0.0426148 -0.00747279 0)
(-0.0407526 -0.00786377 0)
(-0.0388003 -0.00820609 0)
(-0.0367697 -0.00849646 0)
(-0.0346733 -0.00873178 0)
(-0.0325245 -0.00890918 0)
(-0.030337 -0.00902604 0)
(-0.0281251 -0.00908003 0)
(-0.0259037 -0.00906918 0)
(-0.0236879 -0.00899194 0)
(-0.0214931 -0.00884718 0)
(-0.0193348 -0.00863434 0)
(-0.0172285 -0.00835346 0)
(-0.0151895 -0.00800527 0)
(-0.0132327 -0.00759136 0)
(-0.0113725 -0.00711426 0)
(-0.00962272 -0.00657767 0)
(-0.00799583 -0.00598664 0)
(-0.00650326 -0.00534786 0)
(-0.00515484 -0.00467001 0)
(-0.00395854 -0.00396417 0)
(-0.00292021 -0.00324436 0)
(-0.00204323 -0.00252825 0)
(-0.00132834 -0.00183792 0)
(-0.000773047 -0.00120089 0)
(-0.000371183 -0.000651101 0)
(-0.000117756 -0.000230174 0)
(-1.3952e-05 7.85707e-06 0)
(-2.23879e-05 8.88015e-05 0)
(-0.000169631 0.000523742 0)
(-0.00051226 0.00114261 0)
(-0.00103656 0.00188833 0)
(-0.00173984 0.00271629 0)
(-0.00262349 0.00358975 0)
(-0.00368578 0.00447881 0)
(-0.00492222 0.00535946 0)
(-0.00632625 0.00621257 0)
(-0.00788933 0.0070231 0)
(-0.00960115 0.00777933 0)
(-0.0114499 0.00847233 0)
(-0.0134225 0.00909541 0)
(-0.015505 0.00964379 0)
(-0.0176824 0.0101142 0)
(-0.0199395 0.0105046 0)
(-0.0222604 0.0108142 0)
(-0.0246292 0.0110427 0)
(-0.02703 0.0111909 0)
(-0.0294468 0.01126 0)
(-0.031864 0.0112516 0)
(-0.0342662 0.011168 0)
(-0.0366385 0.0110115 0)
(-0.0389662 0.0107849 0)
(-0.0412354 0.0104911 0)
(-0.0434327 0.0101334 0)
(-0.0455452 0.00971507 0)
(-0.047561 0.00923953 0)
(-0.0494685 0.00871039 0)
(-0.051257 0.00813135 0)
(-0.0529167 0.00750617 0)
(-0.0544384 0.00683874 0)
(-0.0558138 0.00613298 0)
(-0.0570353 0.00539292 0)
(-0.0580963 0.00462264 0)
(-0.0589909 0.0038263 0)
(-0.0597142 0.00300813 0)
(-0.0602621 0.00217241 0)
(-0.0606316 0.0013235 0)
(-0.0608203 0.000465832 0)
(-0.0608269 -0.000396106 0)
(-0.0606511 -0.00125776 0)
(-0.0602934 -0.00211453 0)
(-0.0597554 -0.00296174 0)
(-0.0590395 -0.00379469 0)
(-0.0581494 -0.00460864 0)
(-0.0570893 -0.00539881 0)
(-0.0558649 -0.00616043 0)
(-0.0544824 -0.00688873 0)
(-0.0529493 -0.00757895 0)
(-0.0512739 -0.0082264 0)
(-0.0494656 -0.00882643 0)
(-0.0475344 -0.00937451 0)
(-0.0454917 -0.00986622 0)
(-0.0433492 -0.0102973 0)
(-0.0411199 -0.0106638 0)
(-0.0388173 -0.0109617 0)
(-0.0364557 -0.0111876 0)
(-0.0340499 -0.0113384 0)
(-0.0316156 -0.011411 0)
(-0.0291685 -0.0114033 0)
(-0.0267252 -0.0113133 0)
(-0.024302 -0.0111397 0)
(-0.0219159 -0.0108819 0)
(-0.0195833 -0.01054 0)
(-0.0173208 -0.0101151 0)
(-0.0151445 -0.00960927 0)
(-0.01307 -0.00902561 0)
(-0.011112 -0.00836876 0)
(-0.00928431 -0.00764491 0)
(-0.00759942 -0.00686216 0)
(-0.00606832 -0.00603086 0)
(-0.00470025 -0.00516405 0)
(-0.00350239 -0.00427799 0)
(-0.00247976 -0.00339278 0)
(-0.00163498 -0.00253315 0)
(-0.000967817 -0.00172934 0)
(-0.000474742 -0.00101794 0)
(-0.000155596 -0.0004429 0)
(-2.00529e-05 -5.99033e-05 0)
(-2.84082e-05 0.000183183 0)
(-0.000207728 0.000807252 0)
(-0.000617425 0.0016165 0)
(-0.00123521 0.00255335 0)
(-0.00205327 0.00357179 0)
(-0.00307003 0.00463329 0)
(-0.00428112 0.00570596 0)
(-0.00567979 0.00676374 0)
(-0.00725759 0.00778561 0)
(-0.00900434 0.00875475 0)
(-0.0109083 0.00965789 0)
(-0.0129565 0.0104848 0)
(-0.0151345 0.0112276 0)
(-0.0174272 0.0118807 0)
(-0.0198187 0.0124402 0)
(-0.0222925 0.0129037 0)
(-0.0248318 0.0132699 0)
(-0.0274197 0.0135385 0)
(-0.030039 0.0137104 0)
(-0.032673 0.0137868 0)
(-0.0353049 0.0137698 0)
(-0.0379182 0.0136617 0)
(-0.0404971 0.0134655 0)
(-0.043026 0.0131845 0)
(-0.04549 0.0128221 0)
(-0.0478748 0.0123822 0)
(-0.0501667 0.0118687 0)
(-0.0523528 0.0112859 0)
(-0.0544208 0.010638 0)
(-0.0563594 0.00992948 0)
(-0.0581579 0.00916499 0)
(-0.0598065 0.00834917 0)
(-0.0612964 0.00748681 0)
(-0.0626195 0.00658279 0)
(-0.0637687 0.00564207 0)
(-0.0647376 0.00466972 0)
(-0.0655211 0.00367085 0)
(-0.0661147 0.0026507 0)
(-0.0665152 0.00161457 0)
(-0.0667201 0.000567831 0)
(-0.0667279 -0.00048405 0)
(-0.0665384 -0.00153554 0)
(-0.0661521 -0.00258105 0)
(-0.0655706 -0.0036149 0)
(-0.0647967 -0.00463138 0)
(-0.063834 -0.00562475 0)
(-0.0626873 -0.00658921 0)
(-0.0613625 -0.00751897 0)
(-0.0598663 -0.00840826 0)
(-0.0582068 -0.00925131 0)
(-0.0563927 -0.0100425 0)
(-0.054434 -0.0107761 0)
(-0.0523416 -0.0114467 0)
(-0.0501275 -0.012049 0)
(-0.0478042 -0.0125779 0)
(-0.0453856 -0.0130284 0)
(-0.0428861 -0.0133961 0)
(-0.0403209 -0.0136766 0)
(-0.0377059 -0.0138662 0)
(-0.0350577 -0.0139615 0)
(-0.0323933 -0.0139596 0)
(-0.02973 -0.0138585 0)
(-0.0270855 -0.0136566 0)
(-0.0244777 -0.0133532 0)
(-0.0219244 -0.0129486 0)
(-0.0194431 -0.0124441 0)
(-0.0170511 -0.0118422 0)
(-0.0147651 -0.0111468 0)
(-0.012601 -0.0103634 0)
(-0.0105737 -0.00949926 0)
(-0.00869701 -0.00856387 0)
(-0.00698315 -0.00756919 0)
(-0.00544276 -0.00653008 0)
(-0.00408459 -0.00546483 0)
(-0.00291545 -0.00439573 0)
(-0.00194012 -0.00334977 0)
(-0.00116079 -0.00235942 0)
(-0.00057669 -0.00146329 0)
(-0.000192444 -0.000706937 0)
(-2.58554e-05 -0.000146757 0)
(-3.41215e-05 0.000296634 0)
(-0.000244557 0.00114261 0)
(-0.00071999 0.0021702 0)
(-0.00143003 0.00332193 0)
(-0.00236194 0.00455102 0)
(-0.00351114 0.0058177 0)
(-0.00487055 0.00708855 0)
(-0.00643101 0.00833591 0)
(-0.00818202 0.00953713 0)
(-0.0101116 0.0106739 0)
(-0.0122066 0.0117315 0)
(-0.0144524 0.0126985 0)
(-0.0168335 0.0135662 0)
(-0.0193335 0.014328 0)
(-0.0219354 0.0149795 0)
(-0.0246218 0.0155178 0)
(-0.0273746 0.0159414 0)
(-0.030176 0.01625 0)
(-0.033008 0.0164443 0)
(-0.0358526 0.0165258 0)
(-0.0386921 0.0164969 0)
(-0.0415094 0.0163602 0)
(-0.0442874 0.0161193 0)
(-0.0470098 0.0157778 0)
(-0.0496609 0.01534 0)
(-0.0522255 0.0148101 0)
(-0.0546891 0.0141931 0)
(-0.0570381 0.0134937 0)
(-0.0592596 0.012717 0)
(-0.0613414 0.0118685 0)
(-0.0632724 0.0109534 0)
(-0.0650422 0.00997732 0)
(-0.0666413 0.00894598 0)
(-0.0680613 0.00786515 0)
(-0.0692946 0.00674074 0)
(-0.0703345 0.00557875 0)
(-0.0711756 0.00438528 0)
(-0.0718131 0.00316654 0)
(-0.0722436 0.00192884 0)
(-0.0724644 0.000678572 0)
(-0.072474 -0.000577774 0)
(-0.0722721 -0.00183362 0)
(-0.0718592 -0.00308232 0)
(-0.0712371 -0.00431715 0)
(-0.0704087 -0.00553131 0)
(-0.0693778 -0.00671799 0)
(-0.0681494 -0.00787032 0)
(-0.0667297 -0.00898143 0)
(-0.065126 -0.0100445 0)
(-0.0633465 -0.0110526 0)
(-0.0614006 -0.0119992 0)
(-0.0592989 -0.0128775 0)
(-0.0570529 -0.0136811 0)
(-0.054675 -0.0144037 0)
(-0.0521789 -0.0150392 0)
(-0.0495788 -0.0155819 0)
(-0.0468902 -0.0160265 0)
(-0.044129 -0.0163679 0)
(-0.0413121 -0.0166016 0)
(-0.038457 -0.0167238 0)
(-0.0355817 -0.0167311 0)
(-0.0327046 -0.0166211 0)
(-0.0298443 -0.016392 0)
(-0.0270198 -0.0160431 0)
(-0.0242499 -0.0155747 0)
(-0.0215533 -0.0149885 0)
(-0.0189485 -0.0142873 0)
(-0.0164531 -0.0134758 0)
(-0.0140845 -0.0125602 0)
(-0.0118586 -0.0115489 0)
(-0.00979058 -0.0104527 0)
(-0.00789409 -0.00928512 0)
(-0.00618131 -0.00806259 0)
(-0.00466271 -0.00680526 0)
(-0.00334706 -0.00553734 0)
(-0.00224141 -0.00428772 0)
(-0.00135049 -0.00309068 0)
(-0.000676309 -0.00198635 0)
(-0.000228111 -0.0010213 0)
(-3.13598e-05 -0.000252059 0)
(-3.9549e-05 0.000428439 0)
(-0.000280085 0.00152846 0)
(-0.000819669 0.00280219 0)
(-0.00162031 0.00419267 0)
(-0.00266458 0.00565281 0)
(-0.00394494 0.00714203 0)
(-0.00545158 0.0086258 0)
(-0.00717286 0.0100752 0)
(-0.00909612 0.0114662 0)
(-0.0112075 0.0127793 0)
(-0.0134921 0.0139986 0)
(-0.015934 0.0151117 0)
(-0.0185162 0.0161088 0)
(-0.0212211 0.0169828 0)
(-0.0240306 0.0177286 0)
(-0.0269259 0.0183429 0)
(-0.0298884 0.0188242 0)
(-0.0328989 0.0191719 0)
(-0.0359385 0.019387 0)
(-0.0389884 0.019471 0)
(-0.04203 0.0194266 0)
(-0.0450451 0.019257 0)
(-0.0480161 0.018966 0)
(-0.0509258 0.018558 0)
(-0.0537575 0.0180378 0)
(-0.0564955 0.0174104 0)
(-0.0591245 0.0166814 0)
(-0.0616303 0.0158563 0)
(-0.0639993 0.0149413 0)
(-0.0662187 0.0139423 0)
(-0.0682769 0.0128658 0)
(-0.0701629 0.0117181 0)
(-0.0718669 0.010506 0)
(-0.07338 0.00923607 0)
(-0.0746941 0.00791533 0)
(-0.0758024 0.00655075 0)
(-0.076699 0.00514945 0)
(-0.077379 0.00371868 0)
(-0.0778386 0.0022658 0)
(-0.0780753 0.000798275 0)
(-0.0780874 -0.000676325 0)
(-0.0778744 -0.00215033 0)
(-0.077437 -0.00361598 0)
(-0.0767769 -0.00506543 0)
(-0.0758972 -0.00649077 0)
(-0.0748019 -0.00788404 0)
(-0.0734962 -0.00923726 0)
(-0.0719865 -0.0105424 0)
(-0.0702805 -0.0117915 0)
(-0.0683867 -0.0129767 0)
(-0.0663152 -0.01409 0)
(-0.0640767 -0.0151238 0)
(-0.0616834 -0.0160706 0)
(-0.0591485 -0.0169231 0)
(-0.0564859 -0.0176741 0)
(-0.0537109 -0.0183172 0)
(-0.0508395 -0.0188459 0)
(-0.0478886 -0.0192547 0)
(-0.0448758 -0.0195382 0)
(-0.0418195 -0.0196919 0)
(-0.0387385 -0.0197122 0)
(-0.0356522 -0.019596 0)
(-0.0325804 -0.0193414 0)
(-0.0295428 -0.0189476 0)
(-0.0265596 -0.0184151 0)
(-0.0236504 -0.0177456 0)
(-0.0208347 -0.0169424 0)
(-0.0181317 -0.0160108 0)
(-0.0155595 -0.014958 0)
(-0.0131358 -0.0137932 0)
(-0.0108769 -0.0125284 0)
(-0.00879812 -0.0111785 0)
(-0.00691318 -0.00976144 0)
(-0.00523447 -0.00829905 0)
(-0.00377282 -0.00681715 0)
(-0.00253764 -0.00534625 0)
(-0.00153622 -0.00392205 0)
(-0.000773325 -0.00258582 0)
(-0.000262564 -0.00138475 0)
(-3.65869e-05 -0.000375131 0)
(-4.47192e-05 0.000577903 0)
(-0.000314364 0.00196335 0)
(-0.000916441 0.00351073 0)
(-0.00180583 0.00516383 0)
(-0.00296066 0.00687556 0)
(-0.00437056 0.00860487 0)
(-0.00602297 0.0103165 0)
(-0.00790377 0.0119804 0)
(-0.00999805 0.0135718 0)
(-0.01229 0.0150699 0)
(-0.014763 0.0164579 0)
(-0.0173994 0.0177225 0)
(-0.0201809 0.0188533 0)
(-0.0230886 0.0198424 0)
(-0.0261031 0.0206844 0)
(-0.0292048 0.0213757 0)
(-0.0323736 0.0219144 0)
(-0.0355896 0.0223001 0)
(-0.0388329 0.0225338 0)
(-0.0420837 0.0226174 0)
(-0.0453227 0.0225537 0)
(-0.048531 0.0223464 0)
(-0.0516899 0.022 0)
(-0.0547815 0.0215193 0)
(-0.0577887 0.0209097 0)
(-0.0606948 0.0201772 0)
(-0.063484 0.0193279 0)
(-0.0661414 0.0183684 0)
(-0.0686529 0.0173055 0)
(-0.0710053 0.0161461 0)
(-0.0731863 0.0148976 0)
(-0.0751846 0.0135674 0)
(-0.0769899 0.012163 0)
(-0.0785928 0.0106923 0)
(-0.0799851 0.00916317 0)
(-0.0811596 0.00758362 0)
(-0.0821101 0.00596186 0)
(-0.0828315 0.00430624 0)
(-0.08332 0.0026252 0)
(-0.0835727 0.000927321 0)
(-0.083588 -0.000778694 0)
(-0.0833653 -0.00248403 0)
(-0.0829052 -0.00417978 0)
(-0.0822096 -0.00585692 0)
(-0.0812816 -0.00750639 0)
(-0.0801253 -0.00911903 0)
(-0.0787462 -0.0106857 0)
(-0.0771509 -0.0121971 0)
(-0.0753472 -0.0136443 0)
(-0.0733442 -0.015018 0)
(-0.0711521 -0.0163092 0)
(-0.0687823 -0.0175093 0)
(-0.0662472 -0.0186094 0)
(-0.0635607 -0.0196012 0)
(-0.0607373 -0.0204767 0)
(-0.0577928 -0.0212283 0)
(-0.0547439 -0.0218488 0)
(-0.0516083 -0.0223316 0)
(-0.0484043 -0.0226708 0)
(-0.0451512 -0.0228612 0)
(-0.0418686 -0.0228984 0)
(-0.0385769 -0.0227792 0)
(-0.0352967 -0.0225014 0)
(-0.032049 -0.0220639 0)
(-0.0288547 -0.0214672 0)
(-0.0257347 -0.0207134 0)
(-0.0227097 -0.0198061 0)
(-0.0197999 -0.018751 0)
(-0.0170251 -0.017556 0)
(-0.0144041 -0.0162315 0)
(-0.0119547 -0.0147904 0)
(-0.00969389 -0.0132489 0)
(-0.0076372 -0.0116262 0)
(-0.00579893 -0.0099456 0)
(-0.00419207 -0.00823432 0)
(-0.00282843 -0.00652422 0)
(-0.00171786 -0.00485217 0)
(-0.000867753 -0.00326025 0)
(-0.000295867 -0.00179601 0)
(-4.15671e-05 -0.000515326 0)
(-4.96636e-05 0.000744387 0)
(-0.000347494 0.00244587 0)
(-0.00101045 0.00429405 0)
(-0.0019867 0.00623353 0)
(-0.00325021 0.00821745 0)
(-0.00478784 0.0102045 0)
(-0.0065844 0.012159 0)
(-0.00862322 0.0140502 0)
(-0.0108871 0.0158525 0)
(-0.0133584 0.0175443 0)
(-0.0160183 0.019108 0)
(-0.0188478 0.0205296 0)
(-0.0218271 0.021798 0)
(-0.0249359 0.022905 0)
(-0.0281535 0.0238448 0)
(-0.031459 0.0246134 0)
(-0.0348316 0.025209 0)
(-0.0382501 0.0256312 0)
(-0.0416939 0.0258811 0)
(-0.0451422 0.0259609 0)
(-0.0485749 0.0258739 0)
(-0.0519722 0.0256241 0)
(-0.0553149 0.0252166 0)
(-0.0585843 0.0246568 0)
(-0.0617625 0.023951 0)
(-0.0648323 0.0231058 0)
(-0.0677774 0.0221281 0)
(-0.0705823 0.0210253 0)
(-0.0732323 0.0198052 0)
(-0.0757138 0.0184757 0)
(-0.078014 0.0170451 0)
(-0.0801212 0.0155217 0)
(-0.0820248 0.0139142 0)
(-0.0837151 0.0122313 0)
(-0.0851834 0.0104821 0)
(-0.0864224 0.00867573 0)
(-0.0874257 0.00682142 0)
(-0.0881879 0.00492865 0)
(-0.088705 0.00300701 0)
(-0.0889741 0.00106623 0)
(-0.0889934 -0.00088381 0)
(-0.0887623 -0.00283312 0)
(-0.0882814 -0.0047716 0)
(-0.0875526 -0.00668902 0)
(-0.0865791 -0.00857509 0)
(-0.085365 -0.0104195 0)
(-0.083916 -0.0122117 0)
(-0.0822389 -0.0139414 0)
(-0.0803417 -0.0155982 0)
(-0.0782338 -0.0171718 0)
(-0.0759257 -0.018652 0)
(-0.0734292 -0.0200287 0)
(-0.0707571 -0.0212922 0)