/*--------------------------------*- C++ -*----------------------------------*\
  =========                 |
  \\      /  F ield         | OpenFOAM: The Open Source CFD Toolbox
   \\    /   O peration     | Website:  https://openfoam.org
    \\  /    A nd           | Version:  7
     \\/     M anipulation  |
\*---------------------------------------------------------------------------*/
FoamFile
{
    version     2.0;
    format      ascii;
    class       volScalarField;
    location    "0.1625";
    object      p;
}
// * * * * * * * * * * * * * * * * * * * * * * * * * * * * * * * * * * * * * //

dimensions      [0 2 -2 0 0 0 0];

internalField   nonuniform List<scalar> 
25600
(
-2.54555e-07
0.000110497
0.000137167
2.74548e-05
-0.000226338
-0.000620088
-0.00114312
-0.00178112
-0.00251885
-0.00334114
-0.00423368
-0.00518294
-0.00617631
-0.00720218
-0.00824983
-0.00930945
-0.0103721
-0.0114293
-0.0124736
-0.0134981
-0.0144963
-0.0154626
-0.0163917
-0.0172787
-0.0181193
-0.0189095
-0.0196459
-0.0203251
-0.0209445
-0.0215015
-0.0219935
-0.0224187
-0.0227754
-0.0230621
-0.0232775
-0.0234206
-0.0234904
-0.0234864
-0.023408
-0.0232551
-0.0230275
-0.0227254
-0.0223486
-0.0218976
-0.0213729
-0.020775
-0.0201047
-0.0193629
-0.0185504
-0.0176683
-0.0167177
-0.0156997
-0.0146159
-0.0134676
-0.0122563
-0.0109836
-0.0096512
-0.00826088
-0.00681439
-0.00531364
-0.00376061
-0.00215733
-0.000505857
0.00119168
0.00293308
0.00471604
0.00653826
0.00839739
0.0102911
0.0122169
0.0141723
0.0161549
0.018162
0.0201911
0.0222395
0.0243046
0.0263837
0.0284741
0.030573
0.0326777
0.0347854
0.0368933
0.0389987
0.0410987
0.0431907
0.0452716
0.0473387
0.0493891
0.0514201
0.0534289
0.0554127
0.0573688
0.0592944
0.0611869
0.0630437
0.0648619
0.0666391
0.0683727
0.0700601
0.0716991
0.0732871
0.0748219
0.0763011
0.0777227
0.0790844
0.0803844
0.0816205
0.0827909
0.0838939
0.084928
0.0858914
0.0867829
0.0876012
0.088345
0.0890134
0.0896053
0.0901202
0.0905574
0.0909166
0.0911974
0.0913998
0.0915238
0.0915699
0.0915384
0.09143
0.0912457
0.0909865
0.0906539
0.0902494
0.0897749
0.0892326
0.0886248
0.0879543
0.0872239
0.0864371
0.0855975
0.0847092
0.0837765
0.0828043
0.0817976
0.0807621
0.0797041
0.0786303
0.0775477
0.0764643
0.0753884
0.0743292
0.0732966
0.0723014
0.071355
0.0704697
0.0696588
0.0689361
0.068316
0.0678129
0.06744
0.0672067
0.0671151
0.0671544
0.0672687
-0.000109959
1.39266e-06
4.41951e-06
-0.000117476
-0.000359876
-0.000720932
-0.00119421
-0.00176952
-0.0024349
-0.00317809
-0.003987
-0.00484982
-0.0057554
-0.00669322
-0.00765334
-0.00862676
-0.00960502
-0.0105802
-0.0115452
-0.0124932
-0.0134181
-0.0143144
-0.015177
-0.0160011
-0.0167825
-0.0175172
-0.0182018
-0.0188331
-0.0194082
-0.0199246
-0.02038
-0.0207722
-0.0210996
-0.0213606
-0.021554
-0.0216786
-0.0217337
-0.0217184
-0.0216322
-0.0214747
-0.0212458
-0.0209454
-0.0205737
-0.020131
-0.0196175
-0.0190338
-0.0183805
-0.0176585
-0.0168687
-0.0160118
-0.015089
-0.0141015
-0.0130505
-0.0119373
-0.0107635
-0.00953048
-0.00823994
-0.0068935
-0.00549286
-0.00403987
-0.00253642
-0.000984445
0.000614052
0.00225702
0.0039423
0.00566773
0.00743109
0.00923014
0.0110626
0.012926
0.014818
0.0167361
0.0186781
0.0206412
0.022623
0.0246208
0.0266321
0.0286542
0.0306847
0.0327206
0.0347594
0.0367983
0.0388347
0.040866
0.0428893
0.0449019
0.0469011
0.0488842
0.0508484
0.0527912
0.0547097
0.0566013
0.0584635
0.0602938
0.0620894
0.0638478
0.0655666
0.0672432
0.0688753
0.0704606
0.0719968
0.0734815
0.0749127
0.0762884
0.0776063
0.0788648
0.0800618
0.0811955
0.0822644
0.0832669
0.0842016
0.0850672
0.0858625
0.0865862
0.0872376
0.0878157
0.0883199
0.0887498
0.089105
0.0893853
0.0895906
0.0897211
0.0897772
0.0897594
0.0896685
0.0895053
0.089271
0.0889671
0.0885951
0.088157
0.0876549
0.087091
0.0864682
0.0857894
0.0850578
0.0842772
0.0834515
0.0825848
0.081682
0.0807479
0.0797882
0.0788088
0.0778161
0.076817
0.0758188
0.0748297
0.0738581
0.0729132
0.0720049
0.0711435
0.07034
0.0696057
0.0689523
0.0683914
0.0679341
0.0675897
0.0673634
0.0672555
0.0672682
0.0673823
-0.000134371
1.1785e-06
4.33372e-06
-0.000118747
-0.000351253
-0.000690075
-0.00112989
-0.00166203
-0.00227644
-0.0029627
-0.00371024
-0.00450865
-0.00534789
-0.00621833
-0.00711096
-0.00801724
-0.00892924
-0.00983969
-0.0107415
-0.0116284
-0.0124945
-0.0133345
-0.0141432
-0.0149163
-0.0156495
-0.0163389
-0.0169811
-0.017573
-0.0181118
-0.0185948
-0.0190199
-0.0193849
-0.019688
-0.0199278
-0.0201029
-0.0202122
-0.0202549
-0.0202301
-0.0201373
-0.019976
-0.0197459
-0.0194471
-0.0190795
-0.0186436
-0.0181395
-0.0175676
-0.0169286
-0.0162233
-0.0154524
-0.0146167
-0.0137173
-0.0127553
-0.0117319
-0.0106483
-0.00950599
-0.00830642
-0.00705111
-0.0057416
-0.00437959
-0.00296686
-0.00150521
3.49896e-06
0.00155735
0.00315432
0.00479231
0.00646921
0.0081829
0.00993124
0.011712
0.0135227
0.0153612
0.0172251
0.019112
0.0210195
0.022945
0.0248861
0.0268402
0.0288049
0.0307775
0.0327554
0.034736
0.0367168
0.0386952
0.0406685
0.042634
0.044589
0.046531
0.0484573
0.0503654
0.0522525
0.0541161
0.0559536
0.0577626
0.0595404
0.0612847
0.0629929
0.0646625
0.0662913
0.067877
0.0694173
0.0709099
0.0723528
0.0737438
0.0750809
0.0763622
0.0775859
0.0787502
0.0798533
0.0808936
0.0818698
0.0827806
0.0836245
0.0844005
0.0851075
0.0857447
0.0863113
0.0868067
0.0872305
0.0875824
0.0878622
0.0880699
0.0882058
0.0882702
0.0882638
0.0881873
0.0880415
0.0878278
0.0875474
0.0872022
0.086794
0.0863248
0.085797
0.0852132
0.0845764
0.08389
0.0831573
0.0823822
0.081569
0.0807221
0.0798464
0.0789473
0.0780305
0.0771022
0.0761689
0.0752377
0.0743161
0.0734121
0.0725343
0.0716917
0.0708938
0.0701504
0.0694715
0.0688672
0.0683474
0.0679214
0.067597
0.0673786
0.067268
0.0672807
0.0674211
-2.19344e-05
0.00012619
0.000130815
7.8467e-06
-0.000218958
-0.000544369
-0.000962708
-0.00146583
-0.00204472
-0.00268997
-0.00339217
-0.00414207
-0.00493038
-0.0057484
-0.00658774
-0.00744042
-0.00829916
-0.00915689
-0.0100071
-0.0108437
-0.0116611
-0.012454
-0.0132178
-0.0139479
-0.0146403
-0.0152914
-0.0158977
-0.016456
-0.0169637
-0.0174182
-0.0178172
-0.0181587
-0.0184411
-0.0186626
-0.0188219
-0.018918
-0.0189498
-0.0189167
-0.0188182
-0.0186536
-0.0184226
-0.0181251
-0.0177613
-0.0173313
-0.0168353
-0.0162738
-0.0156474
-0.0149568
-0.0142024
-0.0133854
-0.0125066
-0.0115671
-0.0105679
-0.00951044
-0.00839594
-0.00722586
-0.00600161
-0.00472471
-0.00339681
-0.00201963
-0.000594923
0.000875552
0.00238993
0.00394622
0.00554238
0.0071764
0.00884622
0.0105497
0.0122847
0.0140489
0.01584
0.0176559
0.0194942
0.0213524
0.0232282
0.0251191
0.0270227
0.0289365
0.0308581
0.0327847
0.034714
0.0366434
0.0385705
0.0404925
0.0424069
0.0443112
0.0462027
0.048079
0.0499375
0.0517756
0.0535907
0.0553805
0.0571425
0.0588743
0.0605733
0.0622373
0.0638638
0.0654506
0.0669954
0.0684962
0.0699506
0.0713566
0.0727123
0.0740157
0.075265
0.0764582
0.0775938
0.07867
0.0796854
0.0806386
0.0815284
0.0823534
0.0831126
0.083805
0.0844297
0.0849863
0.085474
0.0858924
0.0862414
0.0865207
0.0867305
0.0868709
0.0869425
0.0869458
0.0868816
0.0867508
0.0865546
0.0862945
0.0859722
0.0855894
0.0851483
0.0846511
0.0841005
0.0834994
0.082851
0.0821587
0.0814263
0.0806577
0.0798574
0.0790302
0.0781812
0.0773159
0.0764402
0.0755604
0.0746831
0.0738154
0.0729648
0.0721394
0.0713474
0.0705975
0.0698985
0.0692597
0.0686899
0.0681981
0.0677925
0.0674809
0.0672679
0.0671576
0.0671733
0.0673302
0.000234215
0.000371511
0.000366581
0.000237676
1.06376e-05
-0.00030804
-0.000712414
-0.00119462
-0.00174633
-0.00235913
-0.00302454
-0.00373403
-0.00447939
-0.00525253
-0.00604569
-0.00685154
-0.00766322
-0.00847406
-0.00927805
-0.0100693
-0.0108426
-0.0115928
-0.0123155
-0.0130063
-0.0136613
-0.0142769
-0.0148498
-0.015377
-0.0158558
-0.0162837
-0.0166585
-0.0169781
-0.0172409
-0.0174452
-0.0175898
-0.0176735
-0.0176952
-0.0176544
-0.0175503
-0.0173825
-0.0171507
-0.0168547
-0.0164944
-0.0160701
-0.015582
-0.0150306
-0.0144162
-0.0137395
-0.0130012
-0.012202
-0.011343
-0.0104251
-0.00944929
-0.00841685
-0.00732909
-0.00618733
-0.00499294
-0.0037474
-0.00245231
-0.00110934
0.00027987
0.00171358
0.00318995
0.00470705
0.00626295
0.0078557
0.0094833
0.0111436
0.0128345
0.0145539
0.0162995
0.0180692
0.0198606
0.0216714
0.0234993
0.0253419
0.0271969
0.0290618
0.0309342
0.0328115
0.0346914
0.0365715
0.0384492
0.0403219
0.0421873
0.0440427
0.0458858
0.0477141
0.0495249
0.0513159
0.0530846
0.0548286
0.0565456
0.0582331
0.0598888
0.0615103
0.0630955
0.064642
0.0661478
0.0676107
0.0690286
0.0703994
0.0717213
0.0729925
0.074211
0.0753752
0.0764833
0.0775339
0.0785255
0.0794568
0.0803265
0.0811334
0.0818766
0.082555
0.0831679
0.0837148
0.0841952
0.0846085
0.0849546
0.0852333
0.0854449
0.0855896
0.0856679
0.0856802
0.0856274
0.0855106
0.0853308
0.0850896
0.0847885
0.0844294
0.0840144
0.0835456
0.0830257
0.0824575
0.0818442
0.081189
0.0804956
0.0797678
0.07901
0.0782268
0.0774231
0.0766041
0.0757755
0.0749431
0.0741133
0.0732928
0.0724885
0.0717079
0.0709586
0.0702486
0.069586
0.0689789
0.0684356
0.0679641
0.0675722
0.0672672
0.0670544
0.0669394
0.0669479
0.0670987
0.000629761
0.000735154
0.000708276
0.000565648
0.000331224
1.20307e-05
-0.000385734
-0.000854679
-0.00138716
-0.00197548
-0.00261194
-0.00328889
-0.00399876
-0.0047342
-0.00548817
-0.00625371
-0.0070244
-0.00779423
-0.00855738
-0.00930835
-0.0100422
-0.0107541
-0.0114396
-0.0120947
-0.0127157
-0.013299
-0.0138414
-0.0143401
-0.0147923
-0.0151957
-0.0155481
-0.0158474
-0.016092
-0.0162804
-0.0164113
-0.0164834
-0.0164959
-0.0164479
-0.0163389
-0.0161682
-0.0159356
-0.015641
-0.0152843
-0.0148655
-0.014385
-0.0138431
-0.0132402
-0.0125769
-0.0118538
-0.0110718
-0.0102316
-0.00933427
-0.00838077
-0.00737231
-0.0063101
-0.00519539
-0.00402953
-0.00281398
-0.00155029
-0.00024002
0.00111524
0.00251379
0.0039538
0.00543342
0.0069508
0.00850407
0.0100913
0.0117103
0.013359
0.0150355
0.0167375
0.018463
0.0202095
0.021975
0.0237571
0.0255536
0.0273621
0.0291801
0.0310055
0.0328357
0.0346684
0.0365013
0.0383318
0.0401575
0.0419759
0.0437848
0.0455816
0.0473639
0.0491293
0.0508754
0.0525998
0.0543002
0.0559742
0.0576196
0.0592339
0.0608151
0.0623609
0.0638691
0.0653377
0.0667646
0.0681477
0.069485
0.0707749
0.0720154
0.0732047
0.0743412
0.0754234
0.0764496
0.0774186
0.078329
0.0791797
0.0799695
0.0806973
0.0813625
0.0819642
0.082502
0.0829752
0.0833835
0.0837268
0.0840049
0.0842181
0.0843667
0.084451
0.0844716
0.0844295
0.0843255
0.0841608
0.083937
0.0836555
0.0833182
0.082927
0.0824843
0.0819925
0.0814544
0.080873
0.0802515
0.0795935
0.0789026
0.0781831
0.0774392
0.0766759
0.075898
0.0751108
0.0743201
0.0735315
0.0727515
0.0719866
0.0712436
0.0705295
0.0698518
0.0692177
0.0686347
0.0681103
0.0676519
0.0672667
0.0669616
0.0667423
0.0666151
0.0666046
0.0667284
0.00115442
0.00121119
0.00115106
0.000986464
0.000737225
0.000410285
1.17462e-05
-0.000451477
-0.000972385
-0.00154395
-0.00215917
-0.00281104
-0.00349274
-0.0041976
-0.00491907
-0.00565078
-0.00638679
-0.00712135
-0.00784911
-0.00856499
-0.00926416
-0.00994218
-0.0105948
-0.0112181
-0.0118086
-0.0123628
-0.0128778
-0.0133506
-0.0137787
-0.0141598
-0.0144918
-0.0147727
-0.0150008
-0.0151747
-0.0152929
-0.0153545
-0.0153585
-0.015304
-0.0151904
-0.0150172
-0.0147841
-0.014491
-0.0141376
-0.0137242
-0.0132509
-0.0127181
-0.0121261
-0.0114755
-0.010767
-0.0100012
-0.00917888
-0.00830104
-0.00736871
-0.00638297
-0.00534496
-0.0042559
-0.0031171
-0.00193001
-0.000696089
0.000583174
0.00190622
0.00327137
0.00467686
0.00612093
0.00760178
0.00911758
0.0106664
0.0122461
0.0138549
0.0154907
0.0171514
0.0188348
0.0205388
0.0222612
0.0239999
0.0257526
0.027517
0.0292906
0.0310714
0.032857
0.034645
0.0364331
0.0382188
0.0399999
0.041774
0.0435387
0.0452917
0.0470306
0.048753
0.0504566
0.0521391
0.0537982
0.0554316
0.0570371
0.0586125
0.0601555
0.0616641
0.0631362
0.0645697
0.0659625
0.0673128
0.0686186
0.0698782
0.0710898
0.0722516
0.0733621
0.0744197
0.075423
0.0763707
0.0772615
0.0780943
0.0788678
0.0795813
0.0802339
0.0808251
0.0813541
0.0818206
0.0822242
0.0825646
0.0828421
0.0830566
0.0832085
0.0832983
0.0833265
0.0832939
0.0832016
0.0830508
0.0828427
0.082579
0.0822614
0.0818919
0.0814727
0.0810062
0.0804951
0.0799424
0.0793511
0.0787246
0.0780665
0.0773808
0.0766717
0.0759437
0.0752015
0.0744502
0.073695
0.0729414
0.0721953
0.0714629
0.0707504
0.0700643
0.0694114
0.0687983
0.068232
0.0677191
0.0672666
0.066881
0.066569
0.0663362
0.066189
0.0661483
0.0662283
0.00179487
0.00179006
0.0016869
0.00149274
0.0012215
0.000879875
0.000473672
9.27075e-06
-0.000507015
-0.00106883
-0.00166982
-0.0023035
-0.00296379
-0.00364453
-0.00433977
-0.00504368
-0.00575068
-0.00645544
-0.007153
-0.00783857
-0.00850761
-0.009156
-0.00977965
-0.0103749
-0.0109382
-0.0114665
-0.0119569
-0.0124065
-0.012813
-0.013174
-0.0134875
-0.0137516
-0.0139648
-0.0141255
-0.0142324
-0.0142844
-0.0142806
-0.0142203
-0.0141027
-0.0139273
-0.013694
-0.0134023
-0.0130523
-0.012644
-0.0121777
-0.0116535
-0.0110719
-0.0104334
-0.00973861
-0.00898817
-0.00818284
-0.00732355
-0.00641127
-0.00544705
-0.00443197
-0.00336721
-0.00225408
-0.00109397
0.000111758
0.00136165
0.00265415
0.00398761
0.00536037
0.00677073
0.00821696
0.00969722
0.0112096
0.0127522
0.014323
0.0159202
0.0175417
0.0191853
0.0208489
0.0225306
0.0242281
0.0259393
0.0276618
0.0293934
0.031132
0.0328753
0.0346209
0.0363666
0.03811
0.0398489
0.041581
0.043304
0.0450156
0.0467134
0.0483952
0.0500586
0.0517015
0.0533216
0.0549167
0.0564846
0.0580231
0.0595301
0.0610037
0.0624417
0.063842
0.0652028
0.0665222
0.0677982
0.0690293
0.0702136
0.0713496
0.0724355
0.0734701
0.0744518
0.0753795
0.0762518
0.0770676
0.0778259
0.0785258
0.0791667
0.0797478
0.0802686
0.0807286
0.0811275
0.0814653
0.0817419
0.0819575
0.0821124
0.082207
0.0822419
0.0822181
0.0821363
0.0819979
0.0818041
0.0815564
0.0812566
0.0809065
0.0805084
0.0800646
0.0795777
0.0790504
0.0784859
0.0778873
0.0772581
0.076602
0.0759231
0.0752257
0.0745143
0.0737935
0.0730682
0.0723438
0.0716255
0.0709193
0.0702308
0.0695661
0.0689312
0.0683324
0.0677758
0.0672678
0.0668144
0.0664219
0.0660963
0.0658431
0.0656684
0.065588
0.0656111
0.0025367
0.00246076
0.0023067
0.00207619
0.00177653
0.00141387
0.000993762
0.000521841
3.82308e-06
-0.000554556
-0.00114755
-0.00176942
-0.00241439
-0.00307698
-0.00375176
-0.00443335
-0.00511663
-0.00579668
-0.00646885
-0.00712863
-0.00777186
-0.00839457
-0.00899302
-0.00956359
-0.0101031
-0.0106085
-0.011077
-0.0115059
-0.011893
-0.012236
-0.012533
-0.0127821
-0.0129818
-0.0131306
-0.0132272
-0.0132707
-0.01326
-0.0131944
-0.0130733
-0.0128962
-0.0126627
-0.0123727
-0.012026
-0.0116227
-0.011163
-0.0106471
-0.0100754
-0.00944846
-0.00876672
-0.00803085
-0.00724161
-0.0063999
-0.00550663
-0.00456277
-0.00356939
-0.00252767
-0.00143887
-0.000304295
0.000874738
0.00209679
0.00336034
0.0046638
0.00600556
0.007384
0.00879741
0.010244
0.0117218
0.0132292
0.0147641
0.0163248
0.017909
0.0195149
0.0211404
0.0227835
0.024442
0.0261138
0.0277967
0.0294886
0.0311873
0.0328905
0.0345961
0.0363017
0.0380051
0.0397041
0.0413966
0.0430801
0.0447526
0.0464116
0.048055
0.0496806
0.0512861
0.0528694
0.0544283
0.0559607
0.0574645
0.0589376
0.0603781
0.061784
0.0631531
0.0644837
0.0657739
0.067022
0.0682262
0.0693849
0.0704965
0.0715594
0.0725722
0.0735337
0.0744425
0.0752974
0.0760973
0.0768412
0.0775284
0.0781581
0.0787297
0.0792426
0.0796965
0.080091
0.080426
0.0807017
0.080918
0.0810754
0.0811743
0.0812153
0.0811992
0.0811269
0.0809995
0.0808185
0.0805852
0.0803012
0.0799685
0.0795892
0.0791655
0.0787
0.0781953
0.0776543
0.0770801
0.076476
0.0758457
0.0751928
0.0745216
0.0738361
0.0731408
0.0724404
0.0717396
0.0710437
0.0703578
0.0696874
0.0690379
0.068415
0.0678242
0.0672713
0.0667618
0.0663015
0.0658959
0.0655506
0.0652706
0.0650619
0.0649338
0.0648904
0.00336594
0.00321205
0.00300094
0.0027284
0.0023947
0.00200531
0.00156561
0.00108047
0.000555051
-5.65454e-06
-0.000596408
-0.00121202
-0.00184734
-0.00249729
-0.00315689
-0.00382127
-0.00448578
-0.0051458
-0.00579706
-0.00643538
-0.0070568
-0.00765763
-0.00823439
-0.00878368
-0.0093024
-0.00978772
-0.010237
-0.0106477
-0.0110177
-0.0113447
-0.011627
-0.0118627
-0.0120503
-0.0121885
-0.0122761
-0.0123119
-0.0122951
-0.012225
-0.0121009
-0.0119224
-0.011689
-0.0114007
-0.0110573
-0.0106589
-0.0102056
-0.00969763
-0.00913541
-0.00851937
-0.00785
-0.00712795
-0.00635397
-0.00552891
-0.00465361
-0.00372901
-0.00275617
-0.00173624
-0.00067045
0.00043999
0.00159378
0.00278949
0.00402565
0.00530072
0.00661318
0.00796144
0.00934379
0.0107585
0.0122037
0.0136777
0.0151787
0.0167048
0.0182539
0.0198241
0.0214135
0.0230201
0.0246418
0.0262764
0.0279219
0.0295762
0.0312372
0.0329027
0.0345704
0.0362381
0.0379038
0.0395653
0.0412203
0.0428667
0.0445022
0.0461247
0.0477319
0.0493218
0.0508922
0.0524408
0.0539657
0.0554646
0.0569357
0.058377
0.0597864
0.061162
0.0625018
0.063804
0.0650669
0.0662887
0.0674676
0.0686022
0.0696909
0.0707322
0.0717246
0.0726671
0.0735581
0.0743966
0.0751816
0.075912
0.0765872
0.0772064
0.077769
0.0782745
0.0787225
0.0791126
0.079445
0.0797195
0.0799364
0.0800959
0.0801985
0.0802447
0.0802354
0.0801715
0.080054
0.0798843
0.0796637
0.0793938
0.0790765
0.0787137
0.0783077
0.077861
0.0773759
0.0768554
0.0763023
0.0757198
0.0751114
0.0744807
0.0738313
0.0731674
0.0724931
0.0718126
0.0711306
0.0704517
0.0697809
0.0691231
0.0684833
0.0678666
0.0672782
0.0667232
0.0662068
0.065734
0.0653098
0.0649392
0.064627
0.0643785
0.0641966
0.0640795
0.00426925
0.00403273
0.00375998
0.00344083
0.00306829
0.00264731
0.00218297
0.00167954
0.00114154
0.000573358
-2.03224e-05
-0.000634855
-0.00126559
-0.00190789
-0.00255722
-0.00320919
-0.00385943
-0.0045038
-0.00513836
-0.0057592
-0.0063626
-0.00694518
-0.00750355
-0.00803469
-0.0085356
-0.00900361
-0.00943622
-0.00983107
-0.010186
-0.010499
-0.0107683
-0.0109922
-0.0111692
-0.0112981
-0.0113776
-0.0114068
-0.0113847
-0.0113106
-0.0111841
-0.0110045
-0.0107715
-0.0104851
-0.010145
-0.0097513
-0.00930414
-0.00880378
-0.00825057
-0.00764491
-0.00698729
-0.00627834
-0.00551881
-0.00470947
-0.00385114
-0.00294473
-0.00199131
-0.000991984
5.21038e-05
0.00113977
0.00226972
0.00344055
0.00465083
0.00589913
0.00718395
0.0085037
0.00985671
0.0112413
0.0126557
0.0140984
0.0155673
0.0170607
0.0185766
0.0201132
0.0216685
0.0232407
0.0248276
0.0264272
0.0280375
0.0296564
0.0312818
0.0329117
0.0345437
0.0361758
0.037806
0.0394321
0.0410519
0.0426633
0.044264
0.0458521
0.0474254
0.0489817
0.050519
0.0520351
0.0535279
0.0549955
0.056436
0.0578473
0.0592275
0.0605747
0.061887
0.0631626
0.0643998
0.0655969
0.0667522
0.0678642
0.0689314
0.0699524
0.0709258
0.0718504
0.0727248
0.073548
0.0743189
0.0750367
0.0757006
0.0763099
0.076864
0.0773624
0.0778048
0.0781908
0.0785205
0.0787938
0.0790109
0.0791721
0.0792778
0.0793285
0.0793252
0.0792686
0.0791598
0.0789999
0.0787905
0.0785329
0.078229
0.0778807
0.0774901
0.0770596
0.0765915
0.0760885
0.0755534
0.0749892
0.0743992
0.0737867
0.0731554
0.0725089
0.0718511
0.0711861
0.0705182
0.0698516
0.0691909
0.0685407
0.0679055
0.06729
0.0666988
0.0661366
0.0656082
0.0651179
0.0646703
0.0642695
0.0639203
0.0636274
0.0633869
0.0631913
0.00523443
0.00491217
0.00457438
0.00420501
0.00378961
0.00333285
0.00283957
0.00231337
0.00175815
0.00117789
0.000576618
-4.15183e-05
-0.000672204
-0.00131143
-0.001955
-0.00259888
-0.00323911
-0.00387192
-0.00449365
-0.00510071
-0.00568968
-0.00625732
-0.00680053
-0.00731644
-0.00780233
-0.00825565
-0.00867402
-0.00905522
-0.0093972
-0.00969807
-0.0099561
-0.0101697
-0.0103375
-0.0104582
-0.0105308
-0.0105541
-0.0105275
-0.0104502
-0.0103217
-0.0101414
-0.00990904
-0.00962455
-0.00928776
-0.00889868
-0.00845748
-0.00796441
-0.00741978
-0.00682396
-0.00617747
-0.00548094
-0.00473507
-0.00394055
-0.00309822
-0.00220898
-0.00127388
-0.000293965
0.000729689
0.00179589
0.00290336
0.00405073
0.00523665
0.00645973
0.0077185
0.00901138
0.0103367
0.011693
0.0130784
0.0144915
0.0159302
0.0173928
0.0188775
0.0203824
0.0219057
0.0234455
0.0249997
0.0265663
0.0281434
0.029729
0.031321
0.0329173
0.0345158
0.0361145
0.0377113
0.0393042
0.0408909
0.0424694
0.0440376
0.0455934
0.0471348
0.0486597
0.0501659
0.0516514
0.0531143
0.0545525
0.0559642
0.0573475
0.0587004
0.060021
0.0613075
0.0625582
0.0637714
0.0649454
0.0660787
0.0671696
0.0682167
0.0692188
0.0701743
0.0710822
0.0719411
0.0727499
0.0735077
0.0742136
0.074867
0.075467
0.0760131
0.0765049
0.0769418
0.0773239
0.0776508
0.0779228
0.0781399
0.0783023
0.0784106
0.0784652
0.0784669
0.0784166
0.0783152
0.078164
0.0779641
0.0777172
0.0774249
0.0770891
0.0767117
0.0762951
0.0758413
0.0753531
0.074833
0.0742839
0.073709
0.0731113
0.0724943
0.0718614
0.0712162
0.0705625
0.0699043
0.0692456
0.0685906
0.0679433
0.067308
0.066689
0.0660904
0.0655165
0.0649715
0.0644594
0.0639839
0.0635488
0.0631585
0.0628176
0.062515
0.0622375
0.00625015
0.00584027
0.00543505
0.00501256
0.00455115
0.00405512
0.00352915
0.00297631
0.00239989
0.00180336
0.00119032
0.000564474
-7.04107e-05
-0.000710662
-0.0013525
-0.00199231
-0.00262646
-0.00325146
-0.00386398
-0.00446074
-0.00503858
-0.00559437
-0.00612543
-0.00662896
-0.00710243
-0.00754352
-0.00794994
-0.00831962
-0.00865059
-0.0089411
-0.00918945
-0.00939424
-0.00955412
-0.00966788
-0.00973446
-0.00975294
-0.00972255
-0.0096426
-0.00951251
-0.00933189
-0.00910046
-0.00881804
-0.00848453
-0.00809997
-0.00766454
-0.00717844
-0.00664195
-0.00605548
-0.00541955
-0.00473476
-0.00400174
-0.00322119
-0.00239394
-0.00152088
-0.000603015
0.000358668
0.0013631
0.0024091
0.00349541
0.00462074
0.00578377
0.00698316
0.00821742
0.00948501
0.0107844
0.012114
0.0134723
0.0148574
0.0162677
0.0177014
0.0191568
0.020632
0.0221253
0.0236345
0.025158
0.0266937
0.0282397
0.029794
0.0313547
0.0329195
0.0344866
0.036054
0.0376195
0.0391812
0.0407369
0.0422846
0.0438223
0.0453479
0.0468594
0.0483548
0.049832
0.051289
0.0527238
0.0541346
0.0555195
0.0568765
0.0582039
0.0594997
0.0607622
0.0619897
0.0631805
0.064333
0.0654457
0.0665169
0.0675454
0.0685298
0.0694688
0.070361
0.0712054
0.0720009
0.0727464
0.0734414
0.0740848
0.0746762
0.0752148
0.0757002
0.0761321
0.0765102
0.0768346
0.0771051
0.0773219
0.0774852
0.0775954
0.0776531
0.0776591
0.0776141
0.0775191
0.0773751
0.0771835
0.0769456
0.0766631
0.0763379
0.0759717
0.0755666
0.0751248
0.0746487
0.0741408
0.0736039
0.0730409
0.0724548
0.0718486
0.0712256
0.0705893
0.0699431
0.0692907
0.0686359
0.0679823
0.0673338
0.0666943
0.0660675
0.0654573
0.0648676
0.064302
0.0637641
0.0632572
0.0627842
0.0623496
0.0619577
0.0615904
0.061229
0.00730628
0.00680779
0.00633345
0.00585564
0.00534564
0.00480745
0.00424569
0.00366288
0.00306171
0.00244531
0.00181681
0.00117945
0.000536593
-0.000108383
-0.000752207
-0.00139159
-0.0020232
-0.00264388
-0.00325054
-0.00384021
-0.00440995
-0.00495691
-0.00547854
-0.00597233
-0.00643592
-0.00686708
-0.0072637
-0.00762385
-0.00794567
-0.0082275
-0.00846775
-0.00866513
-0.00881834
-0.00892624
-0.00898786
-0.00900232
-0.00896885
-0.00888681
-0.00875567
-0.00857507
-0.00834475
-0.00806451
-0.00773429
-0.00735417
-0.0069243
-0.00644485
-0.00591612
-0.00533853
-0.00471258
-0.00403884
-0.00331792
-0.00255052
-0.00173745
-0.000879608
2.20857e-05
0.000966664
0.00195306
0.00298009
0.00404655
0.00515121
0.0062928
0.00746996
0.00868122
0.0099251
0.0112001
0.0125048
0.0138375
0.0151966
0.0165803
0.0179869
0.0194148
0.0208622
0.0223272
0.0238079
0.0253026
0.0268094
0.0283263
0.0298513
0.0313826
0.0329181
0.0344558
0.0359938
0.0375301
0.0390626
0.0405894
0.0421083
0.0436175
0.045115
0.0465986
0.0480665
0.0495166
0.050947
0.0523557
0.053741
0.0551008
0.0564335
0.057737
0.0590097
0.0602499
0.0614558
0.0626259
0.0637585
0.064852
0.065905
0.0669162
0.0678842
0.0688077
0.0696855
0.0705165
0.0712995
0.0720338
0.0727185
0.0733528
0.073936
0.0744675
0.074947
0.0753741
0.0757485
0.0760702
0.0763391
0.0765553
0.0767191
0.0768308
0.0768911
0.0769005
0.0768599
0.0767702
0.0766323
0.0764475
0.0762172
0.0759429
0.0756263
0.0752692
0.0748736
0.0744414
0.073975
0.0734768
0.0729494
0.0723954
0.0718176
0.0712191
0.0706028
0.0699719
0.0693297
0.0686794
0.0680247
0.0673688
0.0667153
0.0660677
0.0654294
0.0648039
0.0641947
0.0636051
0.063038
0.0624963
0.0619825
0.061501
0.0610558
0.0606222
0.0601755
0.00839346
0.007806
0.00726159
0.00672687
0.00616617
0.00558349
0.0049833
0.0043676
0.00373869
0.00309927
0.002452
0.0017998
0.00114563
0.000492497
-0.000156695
-0.000798944
-0.00143128
-0.00205082
-0.00265471
-0.00324024
-0.00380469
-0.00434557
-0.00486039
-0.0053469
-0.00580292
-0.00622635
-0.00661523
-0.00696773
-0.00728213
-0.00755685
-0.00779051
-0.0079818
-0.00812953
-0.00823266
-0.00829025
-0.00830149
-0.00826562
-0.00818204
-0.0080503
-0.00787005
-0.00764104
-0.00736308
-0.00703618
-0.00666041
-0.00623588
-0.00576278
-0.00524143
-0.00467225
-0.00405573
-0.00339239
-0.00268283
-0.00192777
-0.00112802
-0.000284415
0.000602151
0.00153072
0.00250021
0.00350948
0.00455738
0.00564273
0.00676426
0.00792061
0.00911036
0.0103321
0.0115844
0.0128658
0.0141746
0.0155092
0.016868
0.0182494
0.0196516
0.021073
0.0225116
0.0239658
0.0254336
0.0269133
0.028403
0.0299008
0.0314046
0.0329127
0.034423
0.0359337
0.0374428
0.0389482
0.0404479
0.0419401
0.0434228
0.044894
0.0463518
0.0477941
0.049219
0.0506247
0.0520092
0.0533707
0.0547074
0.0560174
0.0572989
0.0585502
0.0597697
0.0609557
0.0621066
0.0632207
0.0642965
0.0653327
0.0663279
0.0672808
0.0681901
0.0690545
0.069873
0.0706447
0.0713685
0.0720437
0.0726694
0.0732451
0.0737701
0.074244
0.0746664
0.0750373
0.0753564
0.0756236
0.0758391
0.076003
0.0761158
0.0761779
0.0761901
0.076153
0.0760675
0.0759345
0.0757553
0.0755311
0.0752634
0.0749538
0.074604
0.0742157
0.073791
0.0733321
0.0728411
0.0723205
0.0717728
0.0712006
0.0706068
0.0699941
0.0693654
0.0687238
0.0680724
0.0674143
0.0667527
0.0660907
0.0654316
0.0647784
0.0641344
0.0635025
0.0628856
0.0622864
0.0617072
0.0611502
0.0606198
0.0601197
0.0596185
0.0590863
0.0095031
0.00882695
0.00821191
0.00761919
0.00700632
0.00637716
0.0057363
0.00508532
0.00442609
0.00376081
0.00309193
0.00242194
0.00175342
0.00108907
0.000431505
-0.000216629
-0.000852666
-0.00147395
-0.00207789
-0.00266202
-0.00322387
-0.00376113
-0.0042716
-0.00475315
-0.00520374
-0.00562147
-0.00600452
-0.00635113
-0.00665975
-0.00692891
-0.00715734
-0.00734379
-0.00748719
-0.00758657
-0.00764103
-0.00764979
-0.00761216
-0.00752759
-0.00739567
-0.00721606
-0.00698853
-0.00671298
-0.00638941
-0.00601788
-0.00559848
-0.00513145
-0.00461711
-0.00405589
-0.00344822
-0.00279462
-0.00209572
-0.00135224
-0.000564936
0.000265379
0.00113783
0.00205144
0.00300515
0.00399786
0.00502847
0.00609582
0.00719863
0.00833557
0.00950527
0.0107064
0.0119375
0.0131971
0.0144837
0.0157956
0.0171312
0.0184891
0.0198674
0.0212646
0.0226787
0.024108
0.0255509
0.0270055
0.0284699
0.0299422
0.0314206
0.0329032
0.0343881
0.0358734
0.0373572
0.0388374
0.0403121
0.0417795
0.0432376
0.0446845
0.0461183
0.0475369
0.0489386
0.0503214
0.0516835
0.0530231
0.0543383
0.0556274
0.0568886
0.0581203
0.0593207
0.0604884
0.0616215
0.0627186
0.0637782
0.064799
0.0657795
0.0667185
0.0676147
0.0684669
0.069274
0.0700351
0.0707494
0.0714158
0.0720337
0.0726023
0.0731212
0.0735899
0.0740081
0.0743755
0.074692
0.0749574
0.0751719
0.0753357
0.0754491
0.0755126
0.0755269
0.0754925
0.0754102
0.0752811
0.0751062
0.0748868
0.0746242
0.07432
0.0739756
0.0735929
0.0731736
0.0727199
0.0722339
0.0717177
0.0711738
0.0706046
0.0700127
0.0694007
0.0687713
0.0681274
0.0674717
0.0668072
0.0661367
0.0654632
0.0647895
0.0641184
0.0634528
0.0627953
0.0621485
0.0615147
0.0608959
0.0602937
0.0597126
0.0591564
0.058587
0.0579692
0.0106275
0.00986323
0.00917748
0.00852609
0.00785987
0.00718273
0.00649942
0.00581112
0.00511927
0.00442578
0.00373278
0.00304235
0.00235679
0.0016785
0.00100982
0.000353069
-0.000289353
-0.000915005
-0.00152159
-0.0021068
-0.00266851
-0.0032045
-0.00371285
-0.00419157
-0.00463877
-0.0050527
-0.00543166
-0.00577406
-0.00607843
-0.00634349
-0.00656798
-0.0067508
-0.00689096
-0.00698753
-0.00703968
-0.00704668
-0.00700789
-0.00692282
-0.00679111
-0.00661242
-0.00638657
-0.00611353
-0.00579327
-0.00542585
-0.00501139
-0.00455015
-0.00404247
-0.00348873
-0.00288935
-0.00224489
-0.00155597
-0.000823284
-4.75713e-05
0.000770382
0.00162969
0.00252936
0.00346839
0.00444572
0.00546029
0.00651091
0.00759631
0.00871521
0.00986632
0.0110483
0.0122598
0.0134992
0.014765
0.0160558
0.0173701
0.0187061
0.0200623
0.0214369
0.0228283
0.0242347
0.0256545
0.0270857
0.0285267
0.0299755
0.0314303
0.0328894
0.0343508
0.0358126
0.0372729
0.0387298
0.0401815
0.0416259
0.0430614
0.0444859
0.0458975
0.0472943
0.0486746
0.0500364
0.0513779
0.0526974
0.0539929
0.0552628
0.0565054
0.057719
0.0589021
0.0600528
0.0611698
0.0622514
0.0632962
0.0643028
0.0652699
0.0661962
0.0670805
0.0679215
0.0687183
0.0694698
0.0701753
0.0708337
0.0714444
0.0720066
0.0725198
0.0729837
0.0733978
0.073762
0.0740759
0.0743395
0.0745529
0.0747162
0.0748299
0.0748943
0.07491
0.0748775
0.0747977
0.0746714
0.0744997
0.0742838
0.0740249
0.0737244
0.0733839
0.0730049
0.0725892
0.0721388
0.0716555
0.0711416
0.0705991
0.0700304
0.0694379
0.068824
0.0681912
0.0675421
0.0668794
0.0662056
0.0655235
0.0648356
0.0641445
0.0634529
0.0627631
0.0620775
0.0613985
0.060728
0.0600676
0.0594186
0.0587857
0.0581725
0.0575348
0.0568319
0.0117596
0.0109081
0.0101519
0.00944139
0.00872099
0.00799478
0.00726756
0.0065402
0.00581382
0.0050901
0.00437073
0.00365758
0.00295263
0.00225797
0.00157568
0.000907855
0.000256641
-0.000375791
-0.000987363
-0.001576
-0.00213975
-0.00267669
-0.00318498
-0.00366282
-0.00410851
-0.00452041
-0.00489693
-0.00523666
-0.00553826
-0.00580053
-0.00602232
-0.00620264
-0.00634056
-0.00643522
-0.00648583
-0.00649173
-0.00645235
-0.00636726
-0.00623609
-0.00605858
-0.0058346
-0.00556413
-0.00524715
-0.00488372
-0.00447401
-0.00401829
-0.00351689
-0.00297016
-0.00237855
-0.00174262
-0.001063
-0.000340352
0.000424612
0.0012311
0.00207821
0.00296496
0.0038904
0.00485352
0.00585323
0.00688835
0.00795764