/*--------------------------------*- C++ -*----------------------------------*\
  =========                 |
  \\      /  F ield         | OpenFOAM: The Open Source CFD Toolbox
   \\    /   O peration     | Website:  https://openfoam.org
    \\  /    A nd           | Version:  7
     \\/     M anipulation  |
\*---------------------------------------------------------------------------*/
FoamFile
{
    version     2.0;
    format      ascii;
    class       surfaceScalarField;
    location    "0.1625";
    object      phi;
}
// * * * * * * * * * * * * * * * * * * * * * * * * * * * * * * * * * * * * * //

dimensions      [0 3 -1 0 0 0 0];

internalField   nonuniform List<scalar> 
50880
(
6.44785e-12
-6.41278e-12
3.67518e-11
-3.03098e-11
8.14651e-11
-4.47159e-11
1.30753e-10
-4.92876e-11
1.77587e-10
-4.68377e-11
2.17066e-10
-3.94697e-11
2.45782e-10
-2.87171e-11
2.61442e-10
-1.56528e-11
2.62512e-10
-1.07212e-12
2.48025e-10
1.44842e-11
2.17412e-10
3.06103e-11
1.70402e-10
4.70075e-11
1.06952e-10
6.34485e-11
2.71882e-11
7.97648e-11
-6.86261e-11
9.58145e-11
-1.8013e-10
1.11502e-10
-3.06889e-10
1.26757e-10
-4.48398e-10
1.41507e-10
-6.04104e-10
1.55708e-10
-7.73425e-10
1.6932e-10
-9.55742e-10
1.82319e-10
-1.15042e-09
1.94677e-10
-1.35681e-09
2.06387e-10
-1.57424e-09
2.17428e-10
-1.80204e-09
2.27809e-10
-2.03955e-09
2.37509e-10
-2.28609e-09
2.46536e-10
-2.54097e-09
2.54892e-10
-2.80354e-09
2.62574e-10
-3.07313e-09
2.69582e-10
-3.34906e-09
2.75935e-10
-3.63069e-09
2.81627e-10
-3.91736e-09
2.8667e-10
-4.20843e-09
2.91075e-10
-4.50328e-09
2.94851e-10
-4.80128e-09
2.97999e-10
-5.10182e-09
3.00538e-10
-5.4043e-09
3.02479e-10
-5.70813e-09
3.03827e-10
-6.01274e-09
3.04596e-10
-6.31754e-09
3.04807e-10
-6.62201e-09
3.04463e-10
-6.92558e-09
3.03571e-10
-7.22772e-09
3.02146e-10
-7.52793e-09
3.00207e-10
-7.82569e-09
2.97762e-10
-8.12051e-09
2.94824e-10
-8.41192e-09
2.91407e-10
-8.69944e-09
2.87524e-10
-8.98263e-09
2.83185e-10
-9.26104e-09
2.78403e-10
-9.53423e-09
2.73193e-10
-9.8018e-09
2.6757e-10
-1.00633e-08
2.61546e-10
-1.03185e-08
2.55132e-10
-1.05668e-08
2.4834e-10
-1.0808e-08
2.41183e-10
-1.10417e-08
2.33679e-10
-1.12675e-08
2.25841e-10
-1.14852e-08
2.17677e-10
-1.16944e-08
2.09203e-10
-1.18948e-08
2.00435e-10
-1.20862e-08
1.91386e-10
-1.22683e-08
1.82068e-10
-1.24408e-08
1.72493e-10
-1.26035e-08
1.62674e-10
-1.27561e-08
1.52628e-10
-1.28984e-08
1.42366e-10
-1.30304e-08
1.31901e-10
-1.31516e-08
1.21247e-10
-1.3262e-08
1.10423e-10
-1.33615e-08
9.94416e-11
-1.34498e-08
8.83126e-11
-1.35268e-08
7.70499e-11
-1.35925e-08
6.56705e-11
-1.36467e-08
5.41921e-11
-1.36893e-08
4.26284e-11
-1.37203e-08
3.09898e-11
-1.37396e-08
1.92898e-11
-1.37472e-08
7.54679e-12
-1.37429e-08
-4.22159e-12
-1.37269e-08
-1.59998e-11
-1.36992e-08
-2.77729e-11
-1.36596e-08
-3.95265e-11
-1.36084e-08
-5.12454e-11
-1.35455e-08
-6.29137e-11
-1.3471e-08
-7.45153e-11
-1.33849e-08
-8.60338e-11
-1.32875e-08
-9.7452e-11
-1.31787e-08
-1.08752e-10
-1.30588e-08
-1.19916e-10
-1.29279e-08
-1.3093e-10
-1.27861e-08
-1.41778e-10
-1.26337e-08
-1.52444e-10
-1.24707e-08
-1.6291e-10
-1.22976e-08
-1.73158e-10
-1.21144e-08
-1.8317e-10
-1.19215e-08
-1.92931e-10
-1.17191e-08
-2.02422e-10
-1.15074e-08
-2.11628e-10
-1.12869e-08
-2.20532e-10
-1.10578e-08
-2.29117e-10
-1.08204e-08
-2.37365e-10
-1.05752e-08
-2.45259e-10
-1.03224e-08
-2.52784e-10
-1.00625e-08
-2.59921e-10
-9.7958e-09
-2.66655e-10
-9.52283e-09
-2.72968e-10
-9.24398e-09
-2.78846e-10
-8.95971e-09
-2.84272e-10
-8.67048e-09
-2.89232e-10
-8.37677e-09
-2.93709e-10
-8.07908e-09
-2.97688e-10
-7.77792e-09
-3.01155e-10
-7.47383e-09
-3.04096e-10
-7.16733e-09
-3.06496e-10
-6.85899e-09
-3.08341e-10
-6.54937e-09
-3.09619e-10
-6.23905e-09
-3.10317e-10
-5.92863e-09
-3.10424e-10
-5.6187e-09
-3.09928e-10
-5.30989e-09
-3.08819e-10
-5.0028e-09
-3.07085e-10
-4.69809e-09
-3.04717e-10
-4.39638e-09
-3.01708e-10
-4.09833e-09
-2.9805e-10
-3.8046e-09
-2.93735e-10
-3.51584e-09
-2.88757e-10
-3.23273e-09
-2.83112e-10
-2.95593e-09
-2.76796e-10
-2.68613e-09
-2.69805e-10
-2.42398e-09
-2.6214e-10
-2.17018e-09
-2.538e-10
-1.92539e-09
-2.44787e-10
-1.69029e-09
-2.35107e-10
-1.46552e-09
-2.24764e-10
-1.25175e-09
-2.13769e-10
-1.04962e-09
-2.02132e-10
-8.59751e-10
-1.89868e-10
-6.82756e-10
-1.76994e-10
-5.19223e-10
-1.63534e-10
-3.69707e-10
-1.49516e-10
-2.34729e-10
-1.34978e-10
-1.14765e-10
-1.19964e-10
-1.02342e-11
-1.04531e-10
7.85099e-11
-8.87448e-11
1.512e-10
-7.2691e-11
2.07677e-10
-5.64769e-11
2.47917e-10
-4.02401e-11
2.72075e-10
-2.41582e-11
2.80534e-10
-8.45992e-12
2.73979e-10
6.55315e-12
2.53503e-10
2.04761e-11
2.20751e-10
3.27529e-11
1.78147e-10
4.26052e-11
1.29203e-10
4.89443e-11
7.89308e-11
5.02736e-11
3.44044e-11
4.45283e-11
5.27989e-12
2.91259e-11
5.2797e-12
3.04142e-11
-3.68282e-11
1.01586e-10
-1.01475e-10
1.95474e-10
-1.386e-10
2.95208e-10
-1.4902e-10
3.86582e-10
-1.38208e-10
4.58423e-10
-1.1132e-10
5.02323e-10
-7.2615e-11
5.12104e-10
-2.54377e-11
4.83386e-10
2.76499e-11
4.13159e-10
8.47143e-11
2.99494e-10
1.4428e-10
1.41302e-10
2.05202e-10
-6.18587e-11
2.66613e-10
-3.0992e-10
3.27823e-10
-6.02401e-10
3.88295e-10
-9.38508e-10
4.47617e-10
-1.31719e-09
5.05443e-10
-1.73721e-09
5.61526e-10
-2.19715e-09
6.15645e-10
-2.69547e-09
6.67637e-10
-3.23053e-09
7.17384e-10
-3.80062e-09
7.6477e-10
-4.40397e-09
8.09732e-10
-5.03875e-09
8.5221e-10
-5.70311e-09
8.9217e-10
-6.39518e-09
9.29574e-10
-7.11307e-09
9.64425e-10
-7.85488e-09
9.96702e-10
-8.61873e-09
1.02641e-09
-9.4027e-09
1.05356e-09
-1.02049e-08
1.07817e-09
-1.10236e-08
1.10025e-09
-1.18567e-08
1.11984e-09
-1.27026e-08
1.13695e-09
-1.35594e-08
1.15162e-09
-1.44253e-08
1.16389e-09
-1.52985e-08
1.17379e-09
-1.61774e-08
1.18135e-09
-1.70602e-08
1.18663e-09
-1.79452e-08
1.18965e-09
-1.88309e-08
1.19048e-09
-1.97156e-08
1.18914e-09
-2.05977e-08
1.18569e-09
-2.14757e-08
1.18017e-09
-2.23481e-08
1.17263e-09
-2.32135e-08
1.16311e-09
-2.40703e-08
1.15168e-09
-2.49173e-08
1.13837e-09
-2.5753e-08
1.12323e-09
-2.65761e-08
1.10631e-09
-2.73854e-08
1.08767e-09
-2.81795e-08
1.06734e-09
-2.89574e-08
1.04539e-09
-2.97177e-08
1.02187e-09
-3.04594e-08
9.96827e-10
-3.11813e-08
9.70305e-10
-3.18825e-08
9.42361e-10
-3.25619e-08
9.1305e-10
-3.32185e-08
8.82422e-10
-3.38513e-08
8.50526e-10
-3.44595e-08
8.17418e-10
-3.50422e-08
7.83152e-10
-3.55986e-08
7.47776e-10
-3.61279e-08
7.11341e-10
-3.66293e-08
6.73902e-10
-3.71022e-08
6.35517e-10
-3.75458e-08
5.96239e-10
-3.79595e-08
5.56117e-10
-3.83428e-08
5.15203e-10
-3.86951e-08
4.73555e-10
-3.90159e-08
4.31231e-10
-3.93048e-08
3.88286e-10
-3.95612e-08
3.4477e-10
-3.97849e-08
3.00739e-10
-3.99755e-08
2.56252e-10
-4.01327e-08
2.11369e-10
-4.02562e-08
1.66148e-10
-4.03459e-08
1.20645e-10
-4.04015e-08
7.49213e-11
-4.0423e-08
2.90353e-11
-4.04102e-08
-1.69539e-11
-4.03633e-08
-6.29872e-11
-4.0282e-08
-1.09003e-10
-4.01666e-08
-1.54939e-10
-4.00171e-08
-2.00731e-10
-3.98337e-08
-2.46316e-10
-3.96166e-08
-2.91632e-10
-3.9366e-08
-3.36617e-10
-3.90823e-08
-3.81206e-10
-3.87657e-08
-4.25334e-10
-3.84167e-08
-4.68935e-10
-3.80357e-08
-5.11944e-10
-3.76232e-08
-5.54298e-10
-3.71797e-08
-5.95929e-10
-3.67058e-08
-6.36772e-10
-3.62022e-08
-6.7676e-10
-3.56696e-08
-7.15826e-10
-3.51086e-08
-7.53905e-10
-3.45201e-08
-7.9093e-10
-3.39049e-08
-8.26836e-10
-3.32639e-08
-8.61556e-10
-3.25979e-08
-8.95025e-10
-3.19081e-08
-9.27177e-10
-3.11954e-08
-9.57945e-10
-3.0461e-08
-9.87266e-10
-2.97058e-08
-1.01507e-09
-2.89312e-08
-1.0413e-09
-2.81382e-08
-1.06589e-09
-2.73283e-08
-1.08878e-09
-2.65027e-08
-1.1099e-09
-2.56627e-08
-1.1292e-09
-2.48098e-08
-1.14662e-09
-2.39454e-08
-1.1621e-09
-2.3071e-08
-1.17558e-09
-2.21881e-08
-1.18701e-09
-2.12982e-08
-1.19633e-09
-2.04031e-08
-1.2035e-09
-1.95042e-08
-1.20846e-09
-1.86034e-08
-1.21116e-09
-1.77022e-08
-1.21157e-09
-1.68025e-08
-1.20963e-09
-1.5906e-08
-1.20532e-09
-1.50145e-08
-1.19858e-09
-1.41299e-08
-1.18939e-09
-1.32539e-08
-1.17772e-09
-1.23884e-08
-1.16353e-09
-1.15353e-08
-1.14681e-09
-1.06965e-08
-1.12753e-09
-9.87398e-09
-1.10568e-09
-9.06953e-09
-1.08125e-09
-8.28511e-09
-1.05423e-09
-7.52263e-09
-1.02462e-09
-6.784e-09
-9.92432e-10
-6.07111e-09
-9.57678e-10
-5.38583e-09
-9.20381e-10
-4.73002e-09
-8.80572e-10
-4.1055e-09
-8.38294e-10
-3.51403e-09
-7.93602e-10
-2.95733e-09
-7.46563e-10
-2.43707e-09
-6.97259e-10
-1.9548e-09
-6.45794e-10
-1.51202e-09
-5.92297e-10
-1.11007e-09
-5.36927e-10
-7.50159e-10
-4.79877e-10
-4.33308e-10
-4.21382e-10
-1.60326e-10
-3.61728e-10
6.82536e-11
-3.0127e-10
2.52229e-10
-2.40452e-10
3.91817e-10
-1.79827e-10
4.87753e-10
-1.20095e-10
5.41436e-10
-6.21414e-11
5.55096e-10
-7.1052e-12
5.32032e-10
4.35415e-11
4.76912e-10
8.78748e-11
3.96149e-10
1.23369e-10
2.98349e-10
1.46745e-10
1.94757e-10
1.53868e-10
9.95071e-11
1.3978e-10
2.90627e-11
9.95708e-11
3.43447e-11
4.48189e-11
-8.16429e-11
1.38788e-10
-1.95448e-10
2.55432e-10
-2.55244e-10
3.7328e-10
-2.66882e-10
4.74158e-10
-2.39088e-10
5.43237e-10
-1.80408e-10
5.68846e-10
-9.82255e-11
5.42033e-10
1.36961e-12
4.56165e-10
1.13514e-10
3.06501e-10
2.34375e-10
8.98416e-11
3.6093e-10
-1.95763e-10
4.9081e-10
-5.51271e-10
6.2212e-10
-9.76823e-10
7.53373e-10
-1.47191e-09
8.83384e-10
-2.0355e-09
1.0112e-09
-2.66613e-09
1.13608e-09
-3.36201e-09
1.2574e-09
-4.12104e-09
1.37468e-09
-4.94094e-09
1.48754e-09
-5.8192e-09
1.59565e-09
-6.75322e-09
1.69878e-09
-7.74023e-09
1.79675e-09
-8.77742e-09
1.88941e-09
-9.86189e-09
1.97664e-09
-1.09907e-08
2.0584e-09
-1.21609e-08
2.13461e-09
-1.33694e-08
2.20526e-09
-1.46134e-08
2.27033e-09
-1.58896e-08
2.32984e-09
-1.71953e-08
2.3838e-09
-1.85272e-08
2.43225e-09
-1.98827e-08
2.47525e-09
-2.12585e-08
2.51283e-09
-2.2652e-08
2.54507e-09
-2.40601e-08
2.57204e-09
-2.54802e-08
2.5938e-09
-2.69093e-08
2.61044e-09
-2.83447e-08
2.62206e-09
-2.97838e-08
2.62872e-09
-3.12238e-08
2.63054e-09
-3.26622e-08
2.62759e-09
-3.40965e-08
2.61997e-09
-3.55242e-08
2.6078e-09
-3.69427e-08
2.59116e-09
-3.83497e-08
2.57017e-09
-3.9743e-08
2.54493e-09
-4.11202e-08
2.51555e-09
-4.24791e-08
2.48213e-09
-4.38176e-08
2.44478e-09
-4.51335e-08
2.40361e-09
-4.64249e-08
2.35873e-09
-4.76898e-08
2.31026e-09
-4.89262e-08
2.2583e-09
-5.01323e-08
2.20296e-09
-5.13064e-08
2.14436e-09
-5.24466e-08
2.08262e-09
-5.35514e-08
2.01785e-09
-5.46192e-08
1.95015e-09
-5.56483e-08
1.87965e-09
-5.66373e-08
1.80647e-09
-5.75849e-08
1.73072e-09
-5.84897e-08
1.65252e-09
-5.93503e-08
1.57197e-09
-6.01656e-08
1.4892e-09
-6.09344e-08
1.40433e-09
-6.16556e-08
1.31747e-09
-6.23283e-08
1.22876e-09
-6.29514e-08
1.13829e-09
-6.3524e-08
1.04621e-09
-6.40454e-08
9.52623e-10
-6.45148e-08
8.57661e-10
-6.49315e-08
7.61442e-10
-6.52948e-08
6.64093e-10
-6.56043e-08
5.65741e-10
-6.58594e-08
4.66512e-10
-6.60598e-08
3.66532e-10
-6.62051e-08
2.65934e-10
-6.62951e-08
1.64851e-10
-6.63294e-08
6.34162e-11
-6.63082e-08
-3.82393e-11
-6.62312e-08
-1.39984e-10
-6.60985e-08
-2.41683e-10
-6.59102e-08
-3.43201e-10
-6.56665e-08
-4.44398e-10
-6.53677e-08
-5.45133e-10
-6.50141e-08
-6.45267e-10
-6.46061e-08
-7.44659e-10
-6.41441e-08
-8.43166e-10
-6.36288e-08
-9.40648e-10
-6.30608e-08
-1.03696e-09
-6.24407e-08
-1.13196e-09
-6.17695e-08
-1.2255e-09
-6.1048e-08
-1.31744e-09
-6.02772e-08
-1.40763e-09
-5.9458e-08
-1.49593e-09
-5.85916e-08
-1.58218e-09
-5.76793e-08
-1.66624e-09
-5.67223e-08
-1.74797e-09
-5.57219e-08
-1.82722e-09
-5.46796e-08
-1.90385e-09
-5.35969e-08
-1.9777e-09
-5.24754e-08
-2.04865e-09
-5.13169e-08
-2.11653e-09
-5.01229e-08
-2.18121e-09
-4.88954e-08
-2.24254e-09
-4.76364e-08
-2.30039e-09
-4.63476e-08
-2.35461e-09
-4.50313e-08
-2.40508e-09
-4.36896e-08
-2.45166e-09
-4.23246e-08
-2.4942e-09
-4.09386e-08
-2.5326e-09
-3.9534e-08
-2.56671e-09
-3.81131e-08
-2.59642e-09
-3.66785e-08
-2.62161e-09
-3.52327e-08
-2.64216e-09
-3.37782e-08
-2.65796e-09
-3.23178e-08
-2.6689e-09
-3.08541e-08
-2.67488e-09
-2.93898e-08
-2.6758e-09
-2.79279e-08
-2.67158e-09
-2.64711e-08
-2.66211e-09
-2.50223e-08
-2.64734e-09
-2.35846e-08
-2.62718e-09
-2.21607e-08
-2.60157e-09
-2.07538e-08
-2.57047e-09
-1.93668e-08
-2.5338e-09
-1.80028e-08
-2.49155e-09
-1.66648e-08
-2.44367e-09
-1.53559e-08
-2.39016e-09
-1.40791e-08
-2.331e-09
-1.28375e-08
-2.26622e-09
-1.16341e-08
-2.19583e-09
-1.04719e-08
-2.11987e-09
-9.35387e-09
-2.0384e-09
-8.28293e-09
-1.95151e-09
-7.26192e-09
-1.8593e-09
-6.2936e-09
-1.76192e-09
-5.38066e-09
-1.65951e-09
-4.52563e-09
-1.55228e-09
-3.73093e-09
-1.44049e-09
-2.99879e-09
-1.32444e-09
-2.33121e-09
-1.2045e-09
-1.72997e-09
-1.08112e-09
-1.19652e-09
-9.54832e-10
-7.31944e-10
-8.26305e-10
-3.36874e-10
-6.9634e-10
-1.1395e-11
-5.65929e-10
2.45074e-10
-4.36295e-10
4.33934e-10
-3.08954e-10
5.57593e-10
-1.85799e-10
6.19693e-10
-6.92023e-11
6.25393e-10
3.78445e-11
5.81708e-10
1.31562e-10
4.97891e-10
2.07189e-10
3.85829e-10
2.58811e-10
2.60392e-10
2.79308e-10
1.39585e-10
2.60587e-10
4.43928e-11
1.94767e-10
7.87395e-11
4.93553e-11
-1.3101e-10
1.49252e-10
-2.95334e-10
2.67232e-10
-3.73231e-10
3.7825e-10
-3.77887e-10
4.61569e-10
-3.22402e-10
5.00167e-10
-2.19006e-10
4.80346e-10
-7.84034e-11
3.91336e-10
9.03794e-11
2.24909e-10
2.79945e-10
-2.50014e-11
4.84283e-10
-3.62618e-10
6.98555e-10
-7.90662e-10
9.18852e-10
-1.31058e-09
1.14204e-09
-1.92278e-09
1.36558e-09
-2.62683e-09
1.58743e-09
-3.42157e-09
1.80594e-09
-4.30526e-09
2.01977e-09
-5.27569e-09
2.22783e-09
-6.33025e-09
2.42925e-09
-7.46603e-09
2.62331e-09
-8.67982e-09
2.80944e-09
-9.96824e-09
2.9872e-09
-1.13277e-08
3.15621e-09
-1.27545e-08
3.31622e-09
-1.42449e-08
3.467e-09
-1.57949e-08
3.6084e-09
-1.74006e-08
3.74031e-09
-1.9058e-08
3.86266e-09
-2.07631e-08
3.97543e-09
-2.25118e-08
4.0786e-09
-2.43003e-08
4.17221e-09
-2.61243e-08
4.2563e-09
-2.798e-08
4.33094e-09
-2.98634e-08
4.39621e-09
-3.17705e-08
4.45222e-09
-3.36976e-08
4.49907e-09
-3.56407e-08
4.53688e-09
-3.7596e-08
4.5658e-09
-3.95599e-08
4.58595e-09
-4.15287e-08
4.59749e-09
-4.34987e-08
4.60057e-09
-4.54665e-08
4.59536e-09
-4.74285e-08
4.58201e-09
-4.93814e-08
4.5607e-09
-5.13219e-08
4.53161e-09
-5.32466e-08
4.49491e-09
-5.51524e-08
4.45078e-09
-5.70363e-08
4.39941e-09
-5.88952e-08
4.34099e-09
-6.07261e-08
4.2757e-09
-6.25262e-08
4.20372e-09
-6.42927e-08
4.12525e-09
-6.60229e-08
4.04049e-09
-6.77143e-08
3.94963e-09
-6.93642e-08
3.85286e-09
-7.09702e-08
3.75038e-09
-7.253e-08
3.6424e-09
-7.40412e-08
3.5291e-09
-7.55018e-08
3.4107e-09
-7.69095e-08
3.28738e-09
-7.82624e-08
3.15936e-09
-7.95585e-08
3.02684e-09
-8.0796e-08
2.89001e-09
-8.19731e-08
2.74909e-09
-8.30882e-08
2.60428e-09
-8.41397e-08
2.45578e-09
-8.5126e-08
2.30382e-09
-8.60458e-08
2.14858e-09
-8.68978e-08
1.9903e-09
-8.76808e-08
1.82918e-09
-8.83936e-08
1.66544e-09
-8.90352e-08
1.49928e-09
-8.96047e-08
1.33093e-09
-9.01012e-08
1.1606e-09
-9.0524e-08
9.8853e-10
-9.08724e-08
8.14928e-10
-9.11459e-08
6.40022e-10
-9.1344e-08
4.64039e-10
-9.14664e-08
2.87212e-10
-9.15127e-08
1.09772e-10
-9.14829e-08
-6.80473e-11
-9.13769e-08
-2.46013e-10
-9.11947e-08
-4.23888e-10
-9.09365e-08
-6.01432e-10
-9.06025e-08
-7.78404e-10
-9.0193e-08
-9.54562e-10
-8.97086e-08
-1.12966e-09
-8.91499e-08
-1.30345e-09
-8.85173e-08
-1.47569e-09
-8.78119e-08
-1.64612e-09
-8.70343e-08
-1.81449e-09
-8.61857e-08
-1.98056e-09
-8.52672e-08
-2.14407e-09
-8.42798e-08
-2.30476e-09
-8.32251e-08
-2.46239e-09
-8.21043e-08
-2.6167e-09
-8.09191e-08
-2.76742e-09
-7.9671e-08
-2.91431e-09
-7.83619e-08
-3.05711e-09
-7.69935e-08
-3.19557e-09
-7.5568e-08
-3.32943e-09
-7.40872e-08
-3.45844e-09
-7.25535e-08
-3.58235e-09
-7.09691e-08
-3.7009e-09
-6.93365e-08
-3.81386e-09
-6.76581e-08
-3.92096e-09
-6.59365e-08
-4.02197e-09
-6.41744e-08
-4.11666e-09
-6.23748e-08
-4.20477e-09
-6.05403e-08
-4.28608e-09
-5.86742e-08
-4.36037e-09
-5.67794e-08
-4.4274e-09
-5.48591e-08
-4.48696e-09
-5.29167e-08
-4.53883e-09
-5.09555e-08
-4.58282e-09
-4.89789e-08
-4.61872e-09
-4.69906e-08
-4.64634e-09
-4.4994e-08
-4.66549e-09
-4.29928e-08
-4.67601e-09
-4.09909e-08
-4.67772e-09
-3.8992e-08
-4.67048e-09
-3.7e-08
-4.65413e-09
-3.50188e-08
-4.62854e-09
-3.30524e-08
-4.59361e-09
-3.11048e-08
-4.54921e-09
-2.918e-08
-4.49526e-09
-2.72821e-08
-4.43169e-09
-2.54152e-08
-4.35843e-09
-2.35834e-08
-4.27545e-09
-2.17908e-08
-4.18272e-09
-2.00416e-08
-4.08026e-09
-1.83397e-08
-3.96808e-09
-1.66893e-08
-3.84625e-09
-1.50943e-08
-3.71484e-09
-1.35587e-08
-3.57399e-09
-1.20864e-08
-3.42385e-09
-1.06811e-08
-3.26463e-09
-9.34643e-09
-3.09658e-09
-8.08592e-09
-2.92001e-09
-6.9029e-09
-2.73531e-09
-5.80046e-09
-2.54293e-09
-4.78146e-09
-2.34344e-09
-3.84845e-09
-2.13751e-09
-3.00363e-09
-1.92594e-09
-2.24875e-09
-1.70971e-09
-1.58506e-09
-1.48999e-09
-1.01321e-09
-1.26819e-09
-5.33089e-10
-1.04604e-09
-1.43741e-10
-8.2564e-10
1.56859e-10
-6.09553e-10
3.7199e-10
-4.00928e-10
5.06434e-10
-2.03644e-10
5.66764e-10
-2.24827e-11
5.61661e-10
1.36667e-10
5.02265e-10
2.66588e-10
4.02518e-10
3.58561e-10
2.79519e-10
4.02308e-10
1.53856e-10
3.86252e-10
5.01696e-11
2.98456e-10
1.28909e-10
4.69783e-11
-1.77991e-10
1.38766e-10
-3.87116e-10
2.40176e-10
-4.74644e-10
3.23936e-10
-4.61649e-10
3.6773e-10
-3.662e-10
3.53252e-10
-2.04522e-10
2.65609e-10
9.2345e-12
9.29205e-11
2.6307e-10
-1.74082e-10
5.46942e-10
-5.42361e-10
8.52563e-10
-1.01691e-09
1.1731e-09
-1.60104e-09
1.50298e-09
-2.29662e-09
1.83761e-09
-3.10429e-09
2.17325e-09
-4.02372e-09
2.50685e-09
-5.05367e-09
2.8359e-09
-6.19223e-09
3.15833e-09
-7.43686e-09
3.47247e-09
-8.78455e-09
3.77694e-09
-1.02319e-08
4.07061e-09
-1.1775e-08
4.35259e-09
-1.34099e-08
4.62213e-09
-1.51324e-08
4.87864e-09
-1.69378e-08
5.12167e-09
-1.88217e-08
5.35087e-09
-2.07792e-08
5.56594e-09
-2.28056e-08
5.76671e-09
-2.4896e-08
5.95303e-09
-2.70454e-08
6.12484e-09
-2.92489e-08
6.28211e-09
-3.15016e-08
6.42486e-09
-3.37984e-08
6.55313e-09
-3.61345e-08
6.66701e-09
-3.85049e-08
6.76663e-09
-4.09048e-08
6.8521e-09
-4.33293e-08
6.9236e-09
-4.57737e-08
6.98129e-09
-4.82333e-08
7.02538e-09
-5.07034e-08
7.05605e-09
-5.31795e-08
7.07354e-09
-5.56569e-08
7.07807e-09
-5.81315e-08
7.06988e-09
-6.05987e-08
7.04921e-09
-6.30543e-08
7.01634e-09
-6.54942e-08
6.97151e-09
-6.79143e-08
6.915e-09
-7.03106e-08
6.84709e-09
-7.26793e-08
6.76804e-09
-7.50164e-08
6.67815e-09
-7.73184e-08
6.57769e-09
-7.95817e-08
6.46696e-09
-8.18027e-08
6.34625e-09
-8.3978e-08
6.21585e-09
-8.61045e-08
6.07606e-09
-8.81788e-08
5.92719e-09
-9.01979e-08
5.76952e-09
-9.21589e-08
5.60338e-09
-9.40589e-08
5.42905e-09
-9.5895e-08
5.24686e-09
-9.76648e-08
5.05711e-09
-9.93655e-08
4.86012e-09
-1.00995e-07
4.65618e-09
-1.0255e-07
4.44562e-09
-1.0403e-07
4.22876e-09
-1.05432e-07
4.0059e-09
-1.06753e-07
3.77738e-09
-1.07993e-07
3.54351e-09
-1.09149e-07
3.30461e-09
-1.1022e-07
3.06102e-09
-1.11204e-07
2.81306e-09
-1.12099e-07
2.56107e-09
-1.12905e-07
2.30537e-09
-1.13621e-07
2.04629e-09
-1.14244e-07
1.78419e-09
-1.14775e-07
1.51939e-09
-1.15213e-07
1.25225e-09
-1.15556e-07
9.83119e-10
-1.15804e-07
7.1234e-10
-1.15957e-07
4.40271e-10
-1.16015e-07
1.67267e-10
-1.15976e-07
-1.06313e-10
-1.15842e-07
-3.80107e-10
-1.15612e-07
-6.53748e-10
-1.15287e-07
-9.26866e-10
-1.14866e-07
-1.19909e-09
-1.14351e-07
-1.47005e-09
-1.13741e-07
-1.73936e-09
-1.13038e-07
-2.00665e-09
-1.12242e-07
-2.27154e-09
-1.11354e-07
-2.53363e-09
-1.10376e-07
-2.79255e-09
-1.09309e-07
-3.04791e-09
-1.08154e-07
-3.29932e-09
-1.06912e-07
-3.54639e-09
-1.05586e-07
-3.78872e-09
-1.04177e-07
-4.02593e-09
-1.02686e-07
-4.25763e-09
-1.01117e-07
-4.48342e-09
-9.94714e-08
-4.70291e-09
-9.77513e-08
-4.91571e-09
-9.59593e-08
-5.12143e-09
-9.40981e-08
-5.31968e-09
-9.21703e-08
-5.51009e-09
-9.01789e-08
-5.69226e-09
-8.8127e-08
-5.86581e-09
-8.60176e-08
-6.03037e-09
-8.3854e-08
-6.18557e-09
-8.16396e-08
-6.33104e-09
-7.9378e-08
-6.46641e-09
-7.70727e-08
-6.59134e-09
-7.47276e-08
-6.70547e-09
-7.23465e-08
-6.80847e-09
-6.99335e-08
-6.9e-09
-6.74926e-08
-6.97974e-09
-6.5028e-08
-7.04738e-09
-6.25441e-08
-7.10261e-09
-6.00453e-08
-7.14515e-09
-5.75361e-08
-7.17473e-09
-5.5021e-08
-7.19107e-09
-5.25048e-08
-7.19394e-09
-4.99922e-08
-7.1831e-09
-4.7488e-08
-7.15833e-09
-4.49971e-08
-7.11945e-09
-4.25244e-08
-7.06627e-09
-4.0075e-08
-6.99864e-09
-3.76538e-08
-6.91645e-09
-3.52659e-08
-6.81957e-09
-3.29164e-08
-6.70793e-09
-3.06104e-08
-6.58149e-09
-2.83529e-08
-6.44023e-09
-2.6149e-08
-6.28417e-09
-2.40037e-08
-6.11338e-09
-2.1922e-08
-5.92794e-09
-1.99088e-08
-5.72803e-09
-1.79689e-08
-5.51385e-09
-1.61071e-08
-5.28566e-09
-1.43279e-08
-5.04381e-09
-1.26358e-08
-4.78871e-09
-1.10349e-08
-4.52088e-09
-9.52931e-09
-4.24092e-09
-8.12265e-09
-3.94959e-09
-6.81832e-09
-3.64777e-09
-5.61931e-09
-3.33652e-09
-4.52815e-09
-3.0171e-09
-3.54682e-09
-2.69104e-09
-2.67669e-09
-2.36012e-09
-1.91835e-09
-2.02653e-09
-1.27154e-09
-1.69286e-09
-7.3493e-10
-1.36225e-09
-3.05996e-10
-1.03849e-09
1.92224e-11
-7.26147e-10
2.46356e-10
-4.30776e-10
3.82967e-10
-1.59092e-10
4.38849e-10
8.07861e-11
4.26332e-10
2.79106e-10
3.60621e-10
4.24272e-10
2.60192e-10
5.02737e-10
1.47313e-10
4.99133e-10
4.90026e-11
3.96767e-10
1.77911e-10
3.98348e-11
-2.17827e-10
1.12651e-10
-4.59933e-10
1.83013e-10
-5.45014e-10
2.22846e-10
-5.0148e-10
2.09158e-10
-3.52514e-10
1.23048e-10
-1.18416e-10
-5.09481e-11
1.8323e-10
-3.2531e-10
5.37428e-10
-7.09874e-10
9.31509e-10
-1.21216e-09
1.35485e-09
-1.83766e-09
1.7986e-09
-2.59006e-09
2.25538e-09
-3.47154e-09
2.71909e-09
-4.48293e-09
3.18465e-09
-5.62395e-09
3.64787e-09
-6.89333e-09
4.10528e-09
-8.28899e-09
4.55399e-09
-9.80815e-09
4.99163e-09
-1.14474e-08
5.41623e-09
-1.3203e-08
5.82617e-09
-1.50705e-08
6.22013e-09
-1.70454e-08
6.59703e-09
-1.91228e-08
6.95601e-09
-2.12975e-08
7.29635e-09
-2.35641e-08
7.61752e-09
-2.59173e-08
7.91909e-09
-2.83513e-08
8.20075e-09
-3.08606e-08
8.46228e-09
-3.34393e-08
8.70354e-09
-3.60816e-08
8.92447e-09
-3.87818e-08
9.12505e-09
-4.1534e-08
9.30534e-09
-4.43325e-08
9.46544e-09
-4.71713e-08
9.60548e-09
-5.00449e-08
9.72564e-09
-5.29474e-08
9.82612e-09
-5.58732e-08
9.90716e-09
-5.88169e-08
9.969e-09
-6.17727e-08
1.00119e-08
-6.47355e-08
1.00362e-08
-6.76997e-08
1.00423e-08
-7.06601e-08
1.00303e-08
-7.36116e-08
1.00007e-08
-7.65491e-08
9.95385e-09
-7.94677e-08
9.89008e-09
-8.23624e-08
9.80976e-09
-8.52286e-08
9.7133e-09
-8.80617e-08
9.60107e-09
-9.0857e-08
9.47347e-09
-9.36102e-08
9.33089e-09
-9.6317e-08
9.17376e-09
-9.89732e-08
9.00247e-09
-1.01575e-07
8.81745e-09
-1.04118e-07
8.6191e-09
-1.06599e-07
8.40786e-09
-1.09013e-07
8.18416e-09
-1.11358e-07
7.94842e-09
-1.1363e-07
7.70108e-09
-1.15826e-07
7.44256e-09
-1.17942e-07
7.17333e-09
-1.19976e-07
6.8938e-09
-1.21924e-07
6.60442e-09
-1.23784e-07
6.30564e-09
-1.25553e-07
5.99792e-09
-1.27229e-07
5.68169e-09
-1.28809e-07
5.35741e-09
-1.30291e-07
5.02555e-09
-1.31673e-07
4.68655e-09
-1.32953e-07
4.3409e-09
-1.34129e-07
3.98905e-09
-1.35199e-07
3.63148e-09
-1.36163e-07
3.26865e-09
-1.37017e-07
2.90105e-09
-1.37762e-07
2.52915e-09
-1.38396e-07
2.15345e-09
-1.38919e-07
1.77443e-09
-1.39328e-07
1.39259e-09
-1.39624e-07
1.00843e-09
-1.39806e-07
6.22448e-10
-1.39874e-07
2.35157e-10
-1.39828e-07
-1.52937e-10
-1.39666e-07
-5.41319e-10
-1.39391e-07
-9.29468e-10
-1.39001e-07
-1.31686e-09
-1.38497e-07
-1.70297e-09
-1.3788e-07
-2.08726e-09
-1.3715e-07
-2.46921e-09
-1.36308e-07
-2.84827e-09
-1.35356e-07
-3.22389e-09
-1.34294e-07
-3.59555e-09
-1.33124e-07
-3.96268e-09
-1.31847e-07
-4.32475e-09
-1.30465e-07
-4.6812e-09
-1.2898e-07
-5.03148e-09
-1.27394e-07
-5.37503e-09
-1.25708e-07
-5.7113e-09
-1.23926e-07
-6.03973e-09
-1.2205e-07
-6.35978e-09
-1.20082e-07
-6.67089e-09
-1.18025e-07
-6.97249e-09
-1.15882e-07
-7.26406e-09
-1.13657e-07
-7.54503e-09
-1.11352e-07
-7.81486e-09
-1.08971e-07
-8.07302e-09
-1.06518e-07
-8.31896e-09
-1.03997e-07
-8.55215e-09
-1.0141e-07
-8.77207e-09
-9.87628e-08
-8.97821e-09
-9.60592e-08
-9.17005e-09
-9.33034e-08
-9.3471e-09
-9.05e-08
-9.50887e-09
-8.76536e-08
-9.65488e-09
-8.4769e-08
-9.78466e-09
-8.18509e-08
-9.89776e-09
-7.89046e-08
-9.99376e-09
-7.5935e-08
-1.00722e-08
-7.29474e-08
-1.01327e-08
-6.99472e-08
-1.01749e-08
-6.69398e-08
-1.01985e-08
-6.39307e-08
-1.0203e-08
-6.09257e-08
-1.01881e-08
-5.79304e-08
-1.01536e-08
-5.49506e-08
-1.00993e-08
-5.19921e-08
-1.00247e-08
-4.90609e-08
-9.92987e-09
-4.61629e-08
-9.8145e-09
-4.33039e-08
-9.67848e-09
-4.04901e-08
-9.52173e-09
-3.77274e-08
-9.3442e-09
-3.50218e-08
-9.14587e-09
-3.23791e-08
-8.92681e-09
-2.98054e-08
-8.68712e-09
-2.73064e-08
-8.42698e-09
-2.48878e-08
-8.14661e-09
-2.25553e-08
-7.84635e-09
-2.03144e-08
-7.5266e-09
-1.81703e-08
-7.18789e-09
-1.61282e-08
-6.83083e-09
-1.41929e-08
-6.45617e-09
-1.2369e-08
-6.06483e-09
-1.06607e-08
-5.65789e-09
-9.07179e-09
-5.23664e-09
-7.60569e-09
-4.80261e-09
-6.26519e-09
-4.35761e-09
-5.05245e-09
-3.90378e-09
-3.96891e-09
-3.44366e-09
-3.01514e-09
-2.98029e-09
-2.19073e-09
-2.51727e-09
-1.49409e-09
-2.05889e-09
-9.22323e-10
-1.61025e-09
-4.70986e-10
-1.17748e-09
-1.33884e-10
-7.67878e-10
9.71799e-11
-3.90155e-10
2.32666e-10
-5.4699e-11
2.85583e-10
2.26189e-10
2.71818e-10
4.38035e-10
2.10567e-10
5.63987e-10
1.24935e-10
5.84767e-10
4.29522e-11
4.7875e-10
2.20863e-10
2.94226e-11
-2.47251e-10
7.50704e-11
-5.05584e-10
1.02982e-10
-5.72928e-10
8.54894e-11
-4.83988e-10
-2.75057e-13
-2.66753e-10
-1.73215e-10
5.45302e-11
-4.48893e-10
4.58906e-10
-8.39938e-10
9.28472e-10
-1.35641e-09
1.44798e-09
-2.00608e-09
2.00452e-09
-2.79467e-09
2.58718e-09
-3.72608e-09
3.18679e-09
-4.80265e-09
3.79565e-09
-6.0253e-09
4.4073e-09
-7.39376e-09
5.01633e-09
-8.9067e-09
5.61822e-09
-1.05619e-08
6.20918e-09
-1.23563e-08
6.78607e-09
-1.42863e-08
7.34623e-09
-1.63477e-08
7.88751e-09
-1.85356e-08
8.40809e-09
-2.08451e-08
8.90649e-09
-2.32706e-08
9.38151e-09
-2.58064e-08
9.83216e-09
-2.84466e-08
1.02577e-08
-3.11849e-08
1.06574e-08
-3.40151e-08
1.1031e-08
-3.69308e-08
1.13779e-08
-3.99254e-08
1.16981e-08
-4.29923e-08
1.19914e-08
-4.61251e-08
1.22578e-08
-4.9317e-08
1.24973e-08
-5.25615e-08
1.27099e-08
-5.58519e-08
1.28959e-08
-5.91818e-08
1.30555e-08
-6.25445e-08
1.31888e-08
-6.59337e-08
1.32963e-08
-6.93429e-08
1.33782e-08
-7.27658e-08
1.34349e-08
-7.61962e-08
1.34667e-08
-7.9628e-08
1.34741e-08
-8.30551e-08
1.34574e-08
-8.64717e-08
1.34172e-08
-8.98718e-08
1.3354e-08
-9.32498e-08
1.3268e-08
-9.66e-08
1.316e-08
-9.99171e-08
1.30304e-08
-1.03196e-07
1.28796e-08
-1.0643e-07
1.27082e-08
-1.09616e-07
1.25168e-08
-1.12748e-07
1.23059e-08
-1.15822e-07
1.2076e-08
-1.18832e-07
1.18277e-08
-1.21774e-07
1.15615e-08
-1.24645e-07
1.1278e-08
-1.27438e-07
1.09779e-08
-1.30151e-07
1.06615e-08
-1.3278e-07
1.03296e-08
-1.3532e-07
9.98278e-09
-1.37768e-07
9.62151e-09
-1.40121e-07
9.24644e-09
-1.42375e-07
8.85815e-09
-1.44526e-07
8.45725e-09
-1.46573e-07
8.04434e-09
-1.48511e-07
7.62003e-09
-1.50339e-07
7.18492e-09
-1.52053e-07
6.73963e-09
-1.53651e-07
6.28479e-09
-1.55131e-07
5.821e-09
-1.56491e-07
5.34891e-09
-1.57729e-07
4.86915e-09
-1.58842e-07
4.38234e-09
-1.5983e-07
3.88914e-09
-1.60692e-07
3.3902e-09
-1.61424e-07
2.88616e-09
-1.62027e-07
2.37768e-09
-1.625e-07
1.86543e-09
-1.62842e-07
1.35008e-09
-1.63052e-07
8.32309e-10
-1.63129e-07
3.12795e-10
-1.63075e-07
-2.07777e-10
-1.62887e-07
-7.28716e-10
-1.62567e-07
-1.24932e-09
-1.62115e-07
-1.76889e-09
-1.61532e-07
-2.28673e-09
-1.60817e-07
-2.8021e-09
-1.59972e-07
-3.31431e-09
-1.58997e-07
-3.82262e-09
-1.57895e-07
-4.32631e-09
-1.56666e-07
-4.82465e-09
-1.55312e-07
-5.31692e-09
-1.53834e-07
-5.80236e-09
-1.52235e-07
-6.28026e-09
-1.50516e-07
-6.74986e-09
-1.48681e-07
-7.21042e-09
-1.46731e-07
-7.66121e-09
-1.44669e-07
-8.10148e-09
-1.42499e-07
-8.53049e-09
-1.40222e-07
-8.94749e-09
-1.37843e-07
-9.35175e-09
-1.35364e-07
-9.74254e-09
-1.3279e-07
-1.01191e-08
-1.30124e-07
-1.04808e-08
-1.27371e-07
-1.08268e-08
-1.24533e-07
-1.11564e-08
-1.21616e-07
-1.14689e-08
-1.18625e-07
-1.17637e-08
-1.15563e-07
-1.204e-08
-1.12436e-07
-1.22972e-08
-1.09249e-07
-1.25345e-08
-1.06006e-07
-1.27514e-08
-1.02714e-07
-1.29472e-08
-9.9377e-08
-1.31213e-08
-9.60016e-08
-1.32731e-08
-9.25933e-08
-1.34021e-08
-8.91579e-08
-1.35076e-08
-8.57015e-08
-1.35891e-08
-8.22303e-08
-1.36462e-08
-7.87504e-08
-1.36783e-08
-7.52683e-08
-1.36851e-08
-7.17904e-08
-1.3666e-08
-6.83233e-08
-1.36208e-08
-6.48736e-08
-1.3549e-08
-6.14479e-08
-1.34504e-08
-5.80531e-08
-1.33247e-08
-5.46958e-08
-1.31717e-08
-5.1383e-08
-1.29913e-08
-4.81214e-08
-1.27833e-08
-4.49179e-08
-1.25478e-08
-4.17791e-08
-1.22846e-08
-3.8712e-08
-1.1994e-08
-3.57231e-08
-1.1676e-08
-3.28191e-08
-1.1331e-08
-3.00064e-08
-1.09593e-08
-2.72914e-08
-1.05613e-08
-2.46803e-08
-1.01377e-08
-2.2179e-08
-9.6892e-09
-1.97932e-08
-9.2166e-09
-1.75284e-08
-8.721e-09
-1.53896e-08
-8.20362e-09
-1.33815e-08
-7.66598e-09
-1.15083e-08
-7.10981e-09
-9.77375e-09
-6.53718e-09
-8.18083e-09
-5.95053e-09
-6.7319e-09
-5.3527e-09
-5.42849e-09
-4.74708e-09
-4.27116e-09
-4.13762e-09
-3.25942e-09
-3.52901e-09
-2.39153e-09
-2.92678e-09
-1.66436e-09
-2.33743e-09
-1.07318e-09
-1.76866e-09
-6.11474e-10
-1.22958e-09
-2.70725e-10
-7.30903e-10
-4.01598e-11
-2.85263e-10
9.35e-11
9.25294e-11
1.46357e-10
3.85177e-10
1.37757e-10
5.72589e-10
9.08579e-11
6.31666e-10
3.35147e-11
5.36092e-10
2.54378e-10
1.67677e-11
-2.64016e-10
2.92338e-11
-5.18048e-10
5.91495e-12
-5.49613e-10
-7.95082e-11
-3.9856e-10
-2.49105e-10
-9.71617e-11
-5.21257e-10
3.26681e-10
-9.11209e-10
8.48857e-10
-1.43141e-09
1.44868e-09
-2.09185e-09
2.10841e-09
-2.90024e-09
2.81292e-09
-3.86236e-09
3.54929e-09
-4.98212e-09
4.30656e-09
-6.26188e-09
5.07542e-09
-7.70257e-09
5.84799e-09
-9.30384e-09
6.61761e-09
-1.10643e-08
7.37865e-09
-1.29815e-08
8.12638e-09
-1.50522e-08
8.85679e-09
-1.72725e-08
9.56654e-09
-1.96378e-08
1.02528e-08
-2.2143e-08
1.09133e-08
-2.47825e-08
1.1546e-08
-2.75504e-08
1.21494e-08
-3.04405e-08
1.27222e-08
-3.3446e-08
1.32633e-08
-3.65604e-08
1.37718e-08
-3.97767e-08
1.42472e-08
-4.30877e-08
1.46889e-08
-4.64862e-08
1.50967e-08
-4.99651e-08
1.54703e-08
-5.3517e-08
1.58097e-08
-5.71345e-08
1.61148e-08
-6.08103e-08
1.63857e-08
-6.45371e-08
1.66227e-08
-6.83075e-08
1.68259e-08
-7.21142e-08
1.69956e-08
-7.59501e-08
1.71322e-08
-7.9808e-08
1.72361e-08
-8.36808e-08
1.73077e-08
-8.75615e-08
1.73475e-08
-9.14434e-08
1.73559e-08
-9.53196e-08
1.73336e-08
-9.91834e-08
1.72811e-08
-1.03028e-07
1.71989e-08
-1.06848e-07
1.70877e-08
-1.10636e-07
1.6948e-08
-1.14386e-07
1.67806e-08
-1.18093e-07
1.65861e-08
-1.21749e-07
1.63651e-08