/*--------------------------------*- C++ -*----------------------------------*\
  =========                 |
  \\      /  F ield         | OpenFOAM: The Open Source CFD Toolbox
   \\    /   O peration     | Website:  https://openfoam.org
    \\  /    A nd           | Version:  7
     \\/     M anipulation  |
\*---------------------------------------------------------------------------*/
FoamFile
{
    version     2.0;
    format      ascii;
    class       volVectorField;
    location    "0.1625";
    object      U;
}
// * * * * * * * * * * * * * * * * * * * * * * * * * * * * * * * * * * * * * //

dimensions      [0 1 -1 0 0 0 0];

internalField   nonuniform List<vector> 
25600
(
(2.27966e-07 -2.17261e-07 0)
(2.93021e-06 -1.79509e-06 0)
(9.15745e-06 -2.80808e-06 0)
(1.69596e-05 -3.16768e-06 0)
(2.48555e-05 -3.07939e-06 0)
(3.19055e-05 -2.70321e-06 0)
(3.7466e-05 -2.14376e-06 0)
(4.1089e-05 -1.46968e-06 0)
(4.24777e-05 -7.27676e-07 0)
(4.14366e-05 5.5903e-08 0)
(3.7847e-05 8.578e-07 0)
(3.16459e-05 1.66611e-06 0)
(2.28102e-05 2.46994e-06 0)
(1.13477e-05 3.26054e-06 0)
(-2.70884e-06 4.03498e-06 0)
(-1.93076e-05 4.78605e-06 0)
(-3.83859e-05 5.51311e-06 0)
(-5.98664e-05 6.21426e-06 0)
(-8.36637e-05 6.88497e-06 0)
(-0.000109689 7.52565e-06 0)
(-0.000137843 8.1359e-06 0)
(-0.000168027 8.71446e-06 0)
(-0.000200137 9.25976e-06 0)
(-0.000234067 9.77422e-06 0)
(-0.000269712 1.02555e-05 0)
(-0.000306964 1.07042e-05 0)
(-0.000345713 1.11215e-05 0)
(-0.000385852 1.15076e-05 0)
(-0.000427276 1.18615e-05 0)
(-0.000469874 1.21835e-05 0)
(-0.000513539 1.24755e-05 0)
(-0.00055817 1.27365e-05 0)
(-0.000603659 1.29673e-05 0)
(-0.000649903 1.31697e-05 0)
(-0.000696801 1.33427e-05 0)
(-0.000744254 1.34851e-05 0)
(-0.000792161 1.3599e-05 0)
(-0.000840425 1.36863e-05 0)
(-0.000888953 1.37468e-05 0)
(-0.00093765 1.37812e-05 0)
(-0.000986425 1.37911e-05 0)
(-0.00103519 1.3776e-05 0)
(-0.00108385 1.3735e-05 0)
(-0.00113233 1.3669e-05 0)
(-0.00118054 1.35801e-05 0)
(-0.00122839 1.34688e-05 0)
(-0.00127582 1.33353e-05 0)
(-0.00132274 1.31799e-05 0)
(-0.00136907 1.30035e-05 0)
(-0.00141474 1.28066e-05 0)
(-0.00145969 1.25897e-05 0)
(-0.00150383 1.23533e-05 0)
(-0.00154711 1.20983e-05 0)
(-0.00158946 1.18257e-05 0)
(-0.0016308 1.15356e-05 0)
(-0.0016711 1.1228e-05 0)
(-0.00171027 1.09039e-05 0)
(-0.00174828 1.05645e-05 0)
(-0.00178505 1.02102e-05 0)
(-0.00182054 9.84129e-06 0)
(-0.00185471 9.45815e-06 0)
(-0.00188749 9.06189e-06 0)
(-0.00191885 8.65329e-06 0)
(-0.00194873 8.23263e-06 0)
(-0.00197711 7.8002e-06 0)
(-0.00200393 7.35673e-06 0)
(-0.00202916 6.90311e-06 0)
(-0.00205277 6.43994e-06 0)
(-0.00207472 5.96754e-06 0)
(-0.00209498 5.48652e-06 0)
(-0.00211352 4.99778e-06 0)
(-0.00213031 4.50203e-06 0)
(-0.00214534 3.99966e-06 0)
(-0.00215857 3.49116e-06 0)
(-0.00217 2.97724e-06 0)
(-0.00217959 2.45886e-06 0)
(-0.00218734 1.93668e-06 0)
(-0.00219323 1.41101e-06 0)
(-0.00219725 8.82326e-07 0)
(-0.0021994 3.51516e-07 0)
(-0.00219967 -1.80416e-07 0)
(-0.00219805 -7.12656e-07 0)
(-0.00219455 -1.24464e-06 0)
(-0.00218917 -1.77591e-06 0)
(-0.0021819 -2.30591e-06 0)
(-0.00217277 -2.83384e-06 0)
(-0.00216177 -3.35881e-06 0)
(-0.00214892 -3.87999e-06 0)
(-0.00213424 -4.39663e-06 0)
(-0.00211774 -4.90804e-06 0)
(-0.00209944 -5.41349e-06 0)
(-0.00207936 -5.91222e-06 0)
(-0.00205754 -6.40352e-06 0)
(-0.002034 -6.88665e-06 0)
(-0.00200876 -7.36083e-06 0)
(-0.00198186 -7.82527e-06 0)
(-0.00195335 -8.2792e-06 0)
(-0.00192325 -8.72179e-06 0)
(-0.00189161 -9.15221e-06 0)
(-0.00185848 -9.56975e-06 0)
(-0.00182389 -9.97374e-06 0)
(-0.00178791 -1.03634e-05 0)
(-0.00175057 -1.0738e-05 0)
(-0.00171195 -1.10966e-05 0)
(-0.00167209 -1.14384e-05 0)
(-0.00163106 -1.17627e-05 0)
(-0.00158892 -1.20688e-05 0)
(-0.00154573 -1.23559e-05 0)
(-0.00150157 -1.26234e-05 0)
(-0.0014565 -1.28704e-05 0)
(-0.0014106 -1.30962e-05 0)
(-0.00136395 -1.33001e-05 0)
(-0.00131661 -1.34815e-05 0)
(-0.00126869 -1.36397e-05 0)
(-0.00122024 -1.3774e-05 0)
(-0.00117138 -1.38837e-05 0)
(-0.00112217 -1.39682e-05 0)
(-0.00107271 -1.40267e-05 0)
(-0.00102309 -1.40588e-05 0)
(-0.000973407 -1.4064e-05 0)
(-0.000923755 -1.40416e-05 0)
(-0.000874231 -1.39912e-05 0)
(-0.000824935 -1.39121e-05 0)
(-0.000775966 -1.38039e-05 0)
(-0.000727427 -1.36662e-05 0)
(-0.000679421 -1.34986e-05 0)
(-0.000632053 -1.33007e-05 0)
(-0.000585428 -1.30723e-05 0)
(-0.000539652 -1.28128e-05 0)
(-0.000494834 -1.25221e-05 0)
(-0.000451079 -1.22e-05 0)
(-0.000408497 -1.18462e-05 0)
(-0.000367196 -1.14608e-05 0)
(-0.000327283 -1.10437e-05 0)
(-0.000288866 -1.05949e-05 0)
(-0.000252051 -1.01144e-05 0)
(-0.000216943 -9.60259e-06 0)
(-0.000183647 -9.05985e-06 0)
(-0.000152264 -8.48658e-06 0)
(-0.000122892 -7.88323e-06 0)
(-9.56285e-05 -7.2505e-06 0)
(-7.05645e-05 -6.58935e-06 0)
(-4.77868e-05 -5.90115e-06 0)
(-2.73753e-05 -5.18765e-06 0)
(-9.40218e-06 -4.45089e-06 0)
(6.07006e-06 -3.69345e-06 0)
(1.89912e-05 -2.91856e-06 0)
(2.9326e-05 -2.13047e-06 0)
(3.70585e-05 -1.33504e-06 0)
(4.21977e-05 -5.40093e-07 0)
(4.4784e-05 2.4387e-07 0)
(4.48999e-05 1.00231e-06 0)
(4.26834e-05 1.71467e-06 0)
(3.83475e-05 2.35056e-06 0)
(3.22104e-05 2.86362e-06 0)
(2.47378e-05 3.18337e-06 0)
(1.65943e-05 3.20451e-06 0)
(8.73139e-06 2.76969e-06 0)
(2.62664e-06 1.68668e-06 0)
(1.19732e-07 1.18464e-07 0)
(1.81447e-06 -2.93176e-06 0)
(9.45641e-06 -9.43315e-06 0)
(2.31812e-05 -1.33639e-05 0)
(3.93362e-05 -1.46293e-05 0)
(5.5116e-05 -1.38507e-05 0)
(6.85399e-05 -1.15833e-05 0)
(7.80759e-05 -8.2641e-06 0)
(8.25739e-05 -4.21376e-06 0)
(8.12037e-05 3.28854e-07 0)
(7.33851e-05 5.19024e-06 0)
(5.87337e-05 1.02446e-05 0)
(3.70173e-05 1.5395e-05 0)
(8.11712e-06 2.05677e-05 0)
(-2.79894e-05 2.57094e-05 0)
(-7.12555e-05 3.07737e-05 0)
(-0.000121579 3.57297e-05 0)
(-0.000178806 4.05519e-05 0)
(-0.000242753 4.52184e-05 0)
(-0.000313207 4.97144e-05 0)
(-0.000389928 5.40266e-05 0)
(-0.000472665 5.81477e-05 0)
(-0.000561146 6.20656e-05 0)
(-0.00065509 6.57821e-05 0)
(-0.000754212 6.92866e-05 0)
(-0.000858217 7.25817e-05 0)
(-0.000966805 7.56624e-05 0)
(-0.00107968 7.85316e-05 0)
(-0.00119653 8.11858e-05 0)
(-0.00131705 8.36274e-05 0)
(-0.00144095 8.58578e-05 0)
(-0.00156793 8.78776e-05 0)
(-0.00169767 8.96881e-05 0)
(-0.00182989 9.12938e-05 0)
(-0.00196428 9.26965e-05 0)
(-0.00210056 9.38984e-05 0)
(-0.00223845 9.49021e-05 0)
(-0.00237764 9.57116e-05 0)
(-0.00251788 9.63298e-05 0)
(-0.00265888 9.67597e-05 0)
(-0.00280037 9.70061e-05 0)
(-0.0029421 9.70736e-05 0)
(-0.00308379 9.69645e-05 0)
(-0.00322519 9.66817e-05 0)
(-0.00336607 9.62296e-05 0)
(-0.00350616 9.56128e-05 0)
(-0.00364524 9.48353e-05 0)
(-0.00378307 9.3901e-05 0)
(-0.00391943 9.2814e-05 0)
(-0.0040541 9.15782e-05 0)
(-0.00418686 9.01973e-05 0)
(-0.0043175 8.86752e-05 0)
(-0.00444582 8.70166e-05 0)
(-0.00457162 8.5226e-05 0)
(-0.00469472 8.33076e-05 0)
(-0.00481493 8.12651e-05 0)
(-0.00493206 7.91021e-05 0)
(-0.00504595 7.68232e-05 0)
(-0.00515644 7.44334e-05 0)
(-0.00526335 7.19366e-05 0)
(-0.00536654 6.93365e-05 0)
(-0.00546586 6.66377e-05 0)
(-0.00556117 6.38448e-05 0)
(-0.00565233 6.0962e-05 0)
(-0.00573921 5.7993e-05 0)
(-0.0058217 5.49422e-05 0)
(-0.00589967 5.18144e-05 0)
(-0.00597301 4.86139e-05 0)
(-0.00604162 4.53447e-05 0)
(-0.00610541 4.2011e-05 0)
(-0.00616428 3.86173e-05 0)
(-0.00621815 3.51689e-05 0)
(-0.00626693 3.16699e-05 0)
(-0.00631057 2.81243e-05 0)
(-0.006349 2.45364e-05 0)
(-0.00638215 2.09112e-05 0)
(-0.00640999 1.7254e-05 0)
(-0.00643245 1.35693e-05 0)
(-0.00644951 9.86133e-06 0)
(-0.00646114 6.13476e-06 0)
(-0.00646732 2.39468e-06 0)
(-0.00646802 -1.35384e-06 0)
(-0.00646324 -5.10589e-06 0)
(-0.00645298 -8.85657e-06 0)
(-0.00643725 -1.2601e-05 0)
(-0.00641605 -1.6334e-05 0)
(-0.00638941 -2.00506e-05 0)
(-0.00635736 -2.37456e-05 0)
(-0.00631994 -2.74138e-05 0)
(-0.00627718 -3.10501e-05 0)
(-0.00622913 -3.46489e-05 0)
(-0.00617587 -3.82048e-05 0)
(-0.00611745 -4.17128e-05 0)
(-0.00605395 -4.51677e-05 0)
(-0.00598544 -4.8564e-05 0)
(-0.00591203 -5.18964e-05 0)
(-0.00583381 -5.51594e-05 0)
(-0.00575088 -5.83474e-05 0)
(-0.00566336 -6.14551e-05 0)
(-0.00557137 -6.44771e-05 0)
(-0.00547504 -6.74081e-05 0)
(-0.0053745 -7.02426e-05 0)
(-0.00526991 -7.29754e-05 0)
(-0.00516141 -7.56009e-05 0)
(-0.00504917 -7.81138e-05 0)
(-0.00493335 -8.05086e-05 0)
(-0.00481414 -8.27801e-05 0)
(-0.00469171 -8.4923e-05 0)
(-0.00456625 -8.69322e-05 0)
(-0.00443797 -8.88025e-05 0)
(-0.00430708 -9.05291e-05 0)
(-0.00417377 -9.21068e-05 0)
(-0.00403829 -9.35309e-05 0)
(-0.00390084 -9.47966e-05 0)
(-0.00376168 -9.58992e-05 0)
(-0.00362103 -9.68342e-05 0)
(-0.00347914 -9.7597e-05 0)
(-0.00333628 -9.81834e-05 0)
(-0.0031927 -9.85892e-05 0)
(-0.00304865 -9.88105e-05 0)
(-0.00290443 -9.88436e-05 0)
(-0.00276029 -9.86849e-05 0)
(-0.00261652 -9.83311e-05 0)
(-0.00247341 -9.77788e-05 0)
(-0.00233125 -9.70251e-05 0)
(-0.00219032 -9.60675e-05 0)
(-0.00205093 -9.49036e-05 0)
(-0.00191337 -9.35311e-05 0)
(-0.00177795 -9.19482e-05 0)
(-0.00164496 -9.01532e-05 0)
(-0.00151473 -8.81451e-05 0)
(-0.00138754 -8.59234e-05 0)
(-0.00126371 -8.34876e-05 0)
(-0.00114355 -8.08381e-05 0)
(-0.00102735 -7.79757e-05 0)
(-0.000915428 -7.49017e-05 0)
(-0.000808069 -7.16184e-05 0)
(-0.000705572 -6.81287e-05 0)
(-0.000608224 -6.44367e-05 0)
(-0.000516304 -6.05471e-05 0)
(-0.000430085 -5.64658e-05 0)
(-0.000349823 -5.22005e-05 0)
(-0.000275765 -4.77609e-05 0)
(-0.000208136 -4.31592e-05 0)
(-0.000147144 -3.84101e-05 0)
(-9.29686e-05 -3.35318e-05 0)
(-4.5757e-05 -2.85464e-05 0)
(-5.61905e-06 -2.34819e-05 0)
(2.73836e-05 -1.83733e-05 0)
(5.32486e-05 -1.32652e-05 0)
(7.20473e-05 -8.21508e-06 0)
(8.39448e-05 -3.29656e-06 0)
(8.92235e-05 1.39376e-06 0)
(8.83163e-05 5.7276e-06 0)
(8.18478e-05 9.53198e-06 0)
(7.06911e-05 1.25706e-05 0)
(5.60351e-05 1.45226e-05 0)
(3.94345e-05 1.49636e-05 0)
(2.28712e-05 1.33521e-05 0)
(9.12019e-06 9.13254e-06 0)
(1.68196e-06 2.62249e-06 0)
(2.82909e-06 -9.17557e-06 0)
(1.33906e-05 -2.31666e-05 0)
(3.09738e-05 -3.09403e-05 0)
(5.06331e-05 -3.29336e-05 0)
(6.87921e-05 -3.02314e-05 0)
(8.28967e-05 -2.39075e-05 0)
(9.08716e-05 -1.48745e-05 0)
(9.10804e-05 -3.87009e-06 0)
(8.22887e-05 8.52875e-06 0)
(6.36016e-05 2.18792e-05 0)
(3.43975e-05 3.58372e-05 0)
(-5.72668e-06 5.0134e-05 0)
(-5.69928e-05 6.45657e-05 0)
(-0.000119484 7.89667e-05 0)
(-0.000193166 9.32079e-05 0)
(-0.000277906 0.000107192 0)
(-0.000373509 0.000120834 0)
(-0.000479707 0.000134073 0)
(-0.000596185 0.000146858 0)
(-0.000722594 0.000159147 0)
(-0.000858549 0.00017091 0)
(-0.00100364 0.000182123 0)
(-0.00115743 0.000192765 0)
(-0.00131948 0.000202823 0)
(-0.00148933 0.000212289 0)
(-0.00166651 0.000221153 0)
(-0.00185054 0.000229411 0)
(-0.00204096 0.000237064 0)
(-0.00223728 0.00024411 0)
(-0.00243901 0.00025055 0)
(-0.00264568 0.000256388 0)
(-0.00285681 0.000261628 0)
(-0.00307192 0.000266276 0)
(-0.00329054 0.000270337 0)
(-0.0035122 0.000273821 0)
(-0.00373644 0.000276735 0)
(-0.00396281 0.000279087 0)
(-0.00419085 0.000280885 0)
(-0.00442012 0.000282139 0)
(-0.00465018 0.000282859 0)
(-0.00488062 0.000283056 0)
(-0.005111 0.00028274 0)
(-0.00534092 0.000281921 0)
(-0.00556997 0.00028061 0)
(-0.00579776 0.000278818 0)
(-0.0060239 0.000276558 0)
(-0.00624801 0.000273841 0)
(-0.00646974 0.000270678 0)
(-0.00668871 0.00026708 0)
(-0.00690459 0.00026306 0)
(-0.00711702 0.000258628 0)
(-0.00732569 0.000253797 0)
(-0.00753027 0.000248579 0)
(-0.00773044 0.000242988 0)
(-0.00792592 0.000237033 0)
(-0.00811641 0.000230727 0)
(-0.00830162 0.000224083 0)
(-0.00848129 0.000217114 0)
(-0.00865515 0.000209831 0)
(-0.00882296 0.000202246 0)
(-0.00898448 0.000194373 0)
(-0.00913946 0.000186224 0)
(-0.0092877 0.000177812 0)
(-0.00942898 0.000169147 0)
(-0.0095631 0.000160243 0)
(-0.00968987 0.000151114 0)
(-0.00980912 0.000141772 0)
(-0.00992067 0.00013223 0)
(-0.0100244 0.000122499 0)
(-0.0101201 0.000112594 0)
(-0.0102076 0.000102528 0)
(-0.0102869 9.2314e-05 0)
(-0.0103578 8.19645e-05 0)
(-0.0104202 7.14929e-05 0)
(-0.0104741 6.09131e-05 0)
(-0.0105193 5.02389e-05 0)
(-0.0105557 3.94841e-05 0)
(-0.0105834 2.86625e-05 0)
(-0.0106022 1.77884e-05 0)
(-0.0106122 6.87599e-06 0)
(-0.0106132 -4.06057e-06 0)
(-0.0106054 -1.50072e-05 0)
(-0.0105886 -2.59494e-05 0)
(-0.0105629 -3.68724e-05 0)
(-0.0105283 -4.77612e-05 0)
(-0.0104849 -5.86007e-05 0)
(-0.0104327 -6.9376e-05 0)
(-0.0103718 -8.0072e-05 0)
(-0.0103021 -9.06735e-05 0)
(-0.0102239 -0.000101165 0)
(-0.0101372 -0.000111531 0)
(-0.0100422 -0.000121757 0)
(-0.00993884 -0.000131825 0)
(-0.00982739 -0.000141722 0)
(-0.00970796 -0.000151432 0)
(-0.00958071 -0.000160937 0)
(-0.00944583 -0.000170224 0)
(-0.00930348 -0.000179275 0)
(-0.00915388 -0.000188075 0)
(-0.00899723 -0.000196609 0)
(-0.00883376 -0.000204861 0)
(-0.0086637 -0.000212816 0)
(-0.0084873 -0.000220456 0)
(-0.00830483 -0.000227768 0)
(-0.00811655 -0.000234735 0)
(-0.00792277 -0.000241343 0)
(-0.00772376 -0.000247575 0)
(-0.00751986 -0.000253417 0)
(-0.00731137 -0.000258855 0)
(-0.00709864 -0.000263873 0)
(-0.00688201 -0.000268458 0)
(-0.00666184 -0.000272595 0)
(-0.0064385 -0.000276272 0)
(-0.00621236 -0.000279474 0)
(-0.00598383 -0.000282188 0)
(-0.00575329 -0.000284402 0)
(-0.00552116 -0.000286104 0)
(-0.00528787 -0.000287281 0)
(-0.00505382 -0.000287923 0)
(-0.00481948 -0.000288019 0)
(-0.00458527 -0.00028756 0)
(-0.00435166 -0.000286535 0)
(-0.0041191 -0.000284936 0)
(-0.00388806 -0.000282754 0)
(-0.00365901 -0.000279984 0)
(-0.00343242 -0.000276618 0)
(-0.00320879 -0.000272651 0)
(-0.00298859 -0.000268078 0)
(-0.00277231 -0.000262896 0)
(-0.00256043 -0.000257101 0)
(-0.00235346 -0.000250695 0)
(-0.00215187 -0.000243676 0)
(-0.00195615 -0.000236047 0)
(-0.00176678 -0.000227812 0)
(-0.00158425 -0.000218976 0)
(-0.00140902 -0.000209548 0)
(-0.00124155 -0.000199538 0)
(-0.0010823 -0.000188959 0)
(-0.000931694 -0.000177829 0)
(-0.000790158 -0.000166167 0)
(-0.000658089 -0.000153999 0)
(-0.000535857 -0.000141358 0)
(-0.000423805 -0.00012828 0)
(-0.000322237 -0.000114814 0)
(-0.000231413 -0.000101016 0)
(-0.000151537 -8.69551e-05 0)
(-8.27519e-05 -7.27179e-05 0)
(-2.51183e-05 -5.84103e-05 0)
(2.1398e-05 -4.4165e-05 0)
(5.69491e-05 -3.01479e-05 0)
(8.18315e-05 -1.65688e-05 0)
(9.65193e-05 -3.69422e-06 0)
(0.000101705 8.13443e-06 0)
(9.83482e-05 1.84773e-05 0)
(8.77373e-05 2.67683e-05 0)
(7.15538e-05 3.2288e-05 0)
(5.18966e-05 3.41524e-05 0)
(3.13091e-05 3.13388e-05 0)
(1.33221e-05 2.28757e-05 0)
(2.75613e-06 8.71177e-06 0)
(3.18327e-06 -1.69931e-05 0)
(1.46531e-05 -3.93384e-05 0)
(3.29835e-05 -5.06029e-05 0)
(5.23452e-05 -5.22765e-05 0)
(6.8654e-05 -4.6071e-05 0)
(7.90036e-05 -3.3634e-05 0)
(8.09862e-05 -1.64036e-05 0)
(7.2654e-05 4.4136e-06 0)
(5.25002e-05 2.78473e-05 0)
(1.93971e-05 5.31149e-05 0)
(-2.74698e-05 7.9596e-05 0)
(-8.86403e-05 0.0001068 0)
(-0.000164439 0.000134329 0)
(-0.000255011 0.000161871 0)
(-0.000360342 0.000189178 0)
(-0.000480302 0.000216044 0)
(-0.000614654 0.000242309 0)
(-0.000763079 0.000267845 0)
(-0.000925188 0.000292542 0)
(-0.00110054 0.000316321 0)
(-0.00128863 0.000339111 0)
(-0.00148895 0.000360862 0)
(-0.00170092 0.000381529 0)
(-0.00192398 0.000401087 0)
(-0.0021575 0.000419504 0)
(-0.00240089 0.00043677 0)
(-0.0026535 0.00045287 0)
(-0.00291471 0.000467797 0)
(-0.00318387 0.000481551 0)
(-0.00346034 0.000494131 0)
(-0.00374347 0.000505541 0)
(-0.00403263 0.000515788 0)
(-0.00432716 0.000524882 0)
(-0.00462645 0.000532833 0)
(-0.00492985 0.000539653 0)
(-0.00523673 0.000545359 0)
(-0.00554649 0.000549966 0)
(-0.00585852 0.000553489 0)
(-0.00617221 0.000555946 0)
(-0.00648696 0.000557356 0)
(-0.00680221 0.000557739 0)
(-0.00711737 0.000557112 0)
(-0.00743189 0.000555498 0)
(-0.00774522 0.000552918 0)
(-0.00805682 0.000549392 0)
(-0.00836617 0.000544943 0)
(-0.00867274 0.000539594 0)
(-0.00897604 0.000533366 0)
(-0.00927557 0.000526283 0)
(-0.00957087 0.000518366 0)
(-0.00986147 0.000509639 0)
(-0.0101469 0.000500125 0)
(-0.0104268 0.000489848 0)
(-0.0107006 0.000478832 0)
(-0.010968 0.0004671 0)
(-0.0112285 0.000454676 0)
(-0.0114819 0.000441585 0)
(-0.0117277 0.000427851 0)
(-0.0119655 0.000413497 0)
(-0.0121951 0.000398549 0)
(-0.012416 0.000383031 0)
(-0.012628 0.000366968 0)
(-0.0128307 0.000350384 0)
(-0.013024 0.000333302 0)
(-0.0132074 0.00031575 0)
(-0.0133808 0.000297752 0)
(-0.0135439 0.000279333 0)
(-0.0136964 0.000260519 0)
(-0.0138382 0.000241334 0)
(-0.0139691 0.000221806 0)
(-0.0140888 0.000201959 0)
(-0.0141972 0.000181821 0)
(-0.0142941 0.000161416 0)
(-0.0143794 0.000140771 0)
(-0.014453 0.000119914 0)
(-0.0145147 9.88716e-05 0)
(-0.0145645 7.76703e-05 0)
(-0.0146022 5.63381e-05 0)
(-0.0146279 3.49031e-05 0)
(-0.0146414 1.33936e-05 0)
(-0.0146427 -8.1624e-06 0)
(-0.0146318 -2.97368e-05 0)
(-0.0146088 -5.13011e-05 0)
(-0.0145735 -7.28262e-05 0)
(-0.0145261 -9.42827e-05 0)
(-0.0144666 -0.000115641 0)
(-0.0143951 -0.000136871 0)
(-0.0143116 -0.000157944 0)
(-0.0142163 -0.000178829 0)
(-0.0141092 -0.000199496 0)
(-0.0139906 -0.000219914 0)
(-0.0138604 -0.000240053 0)
(-0.013719 -0.000259883 0)
(-0.0135665 -0.000279372 0)
(-0.0134031 -0.000298491 0)
(-0.013229 -0.000317206 0)
(-0.0130444 -0.000335488 0)
(-0.0128497 -0.000353306 0)
(-0.012645 -0.000370629 0)
(-0.0124308 -0.000387426 0)
(-0.0122072 -0.000403666 0)
(-0.0119746 -0.000419318 0)
(-0.0117333 -0.000434351 0)
(-0.0114838 -0.000448736 0)
(-0.0112263 -0.000462442 0)
(-0.0109613 -0.000475439 0)
(-0.0106892 -0.000487696 0)
(-0.0104104 -0.000499186 0)
(-0.0101254 -0.000509879 0)
(-0.00983453 -0.000519746 0)
(-0.00953836 -0.000528761 0)
(-0.00923736 -0.000536895 0)
(-0.00893203 -0.000544123 0)
(-0.00862288 -0.000550417 0)
(-0.00831046 -0.000555754 0)
(-0.0079953 -0.000560107 0)
(-0.00767796 -0.000563455 0)
(-0.00735902 -0.000565773 0)
(-0.00703905 -0.000567042 0)
(-0.00671866 -0.00056724 0)
(-0.00639844 -0.000566349 0)
(-0.00607901 -0.00056435 0)
(-0.005761 -0.000561227 0)
(-0.00544503 -0.000556965 0)
(-0.00513174 -0.000551551 0)
(-0.00482179 -0.000544973 0)
(-0.00451581 -0.000537222 0)
(-0.00421446 -0.000528289 0)
(-0.00391841 -0.000518169 0)
(-0.0036283 -0.000506859 0)
(-0.00334479 -0.000494359 0)
(-0.00306854 -0.000480671 0)
(-0.0028002 -0.000465801 0)
(-0.00254041 -0.000449758 0)
(-0.00228981 -0.000432555 0)
(-0.00204902 -0.000414212 0)
(-0.00181866 -0.000394752 0)
(-0.00159932 -0.000374204 0)
(-0.00139157 -0.000352604 0)
(-0.00119596 -0.000329996 0)
(-0.00101301 -0.000306435 0)
(-0.000843185 -0.000281987 0)
(-0.000686931 -0.000256732 0)
(-0.000544626 -0.000230766 0)
(-0.00041659 -0.000204205 0)
(-0.000303068 -0.000177191 0)
(-0.000204214 -0.000149894 0)
(-0.000120077 -0.000122527 0)
(-5.0579e-05 -9.53469e-05 0)
(4.5124e-06 -6.86727e-05 0)
(4.56119e-05 -4.28993e-05 0)
(7.33542e-05 -1.85181e-05 0)
(8.86356e-05 3.85721e-06 0)
(9.26629e-05 2.34604e-05 0)
(8.70101e-05 3.93394e-05 0)
(7.36768e-05 5.03291e-05 0)
(5.50971e-05 5.50457e-05 0)
(3.41681e-05 5.19313e-05 0)
(1.49456e-05 3.94343e-05 0)
(3.18912e-06 1.65523e-05 0)
(3.09811e-06 -2.49033e-05 0)
(1.39001e-05 -5.51532e-05 0)
(3.03624e-05 -6.88049e-05 0)
(4.62921e-05 -6.86075e-05 0)
(5.73167e-05 -5.70486e-05 0)
(6.03106e-05 -3.63941e-05 0)
(5.26685e-05 -8.63296e-06 0)
(3.22612e-05 2.45569e-05 0)
(-2.59235e-06 6.17809e-05 0)
(-5.31802e-05 0.000101897 0)
(-0.000120442 0.000143978 0)
(-0.000205035 0.000187267 0)
(-0.000307362 0.000231153 0)
(-0.000427616 0.000275141 0)
(-0.000565815 0.000318825 0)
(-0.000721828 0.00036188 0)
(-0.000895397 0.000404041 0)
(-0.00108616 0.000445085 0)
(-0.00129368 0.000484841 0)
(-0.00151742 0.000523162 0)
(-0.00175681 0.000559935 0)
(-0.00201122 0.000595067 0)
(-0.00227999 0.000628484 0)
(-0.0025624 0.000660131 0)
(-0.00285773 0.000689962 0)
(-0.00316523 0.000717945 0)
(-0.00348414 0.000744058 0)
(-0.00381368 0.000768284 0)
(-0.00415306 0.000790617 0)
(-0.00450149 0.000811054 0)
(-0.00485818 0.0008296 0)
(-0.00522233 0.000846263 0)
(-0.00559316 0.000861056 0)
(-0.00596988 0.000873993 0)
(-0.0063517 0.000885094 0)
(-0.00673784 0.00089438 0)
(-0.00712754 0.000901875 0)
(-0.00752005 0.000907604 0)
(-0.00791461 0.000911597 0)
(-0.00831048 0.00091388 0)
(-0.00870694 0.000914485 0)
(-0.00910328 0.000913442 0)
(-0.00949879 0.000910785 0)
(-0.00989278 0.000906547 0)
(-0.0102846 0.000900763 0)
(-0.0106736 0.000893467 0)
(-0.011059 0.000884696 0)
(-0.0114404 0.000874486 0)
(-0.011817 0.000862874 0)
(-0.0121883 0.000849896 0)
(-0.0125536 0.00083559 0)
(-0.0129125 0.000819995 0)
(-0.0132643 0.000803148 0)
(-0.0136086 0.000785087 0)
(-0.0139448 0.000765852 0)
(-0.0142724 0.000745482 0)
(-0.0145909 0.000724017 0)
(-0.0148999 0.000701496 0)
(-0.0151989 0.000677958 0)
(-0.0154875 0.000653444 0)
(-0.0157652 0.000627994 0)
(-0.0160317 0.000601649 0)
(-0.0162866 0.000574448 0)
(-0.0165295 0.000546432 0)
(-0.0167601 0.000517643 0)
(-0.016978 0.000488122 0)
(-0.017183 0.00045791 0)
(-0.0173747 0.000427049 0)
(-0.0175529 0.000395582 0)
(-0.0177174 0.00036355 0)
(-0.0178678 0.000330996 0)
(-0.018004 0.000297964 0)
(-0.0181257 0.000264495 0)
(-0.0182329 0.000230634 0)
(-0.0183253 0.000196426 0)
(-0.0184028 0.000161914 0)
(-0.0184652 0.000127143 0)
(-0.0185126 9.21591e-05 0)
(-0.0185447 5.70077e-05 0)
(-0.0185615 2.17351e-05 0)
(-0.0185631 -1.36125e-05 0)
(-0.0185493 -4.89887e-05 0)
(-0.0185202 -8.43463e-05 0)
(-0.0184757 -0.000119637 0)
(-0.018416 -0.000154814 0)
(-0.0183411 -0.000189828 0)
(-0.0182511 -0.00022463 0)
(-0.018146 -0.000259173 0)
(-0.0180261 -0.000293405 0)
(-0.0178913 -0.000327277 0)
(-0.017742 -0.00036074 0)
(-0.0175784 -0.000393744 0)
(-0.0174005 -0.000426239 0)
(-0.0172087 -0.000458174 0)
(-0.0170032 -0.000489498 0)
(-0.0167843 -0.00052016 0)
(-0.0165522 -0.000550111 0)
(-0.0163074 -0.000579299 0)
(-0.0160501 -0.000607674 0)
(-0.0157807 -0.000635184 0)
(-0.0154997 -0.000661781 0)
(-0.0152073 -0.000687414 0)
(-0.0149041 -0.000712032 0)
(-0.0145904 -0.000735586 0)
(-0.0142668 -0.000758026 0)
(-0.0139338 -0.000779304 0)
(-0.0135918 -0.000799371 0)
(-0.0132414 -0.00081818 0)
(-0.0128832 -0.000835684 0)
(-0.0125177 -0.000851837 0)
(-0.0121455 -0.000866593 0)
(-0.0117673 -0.000879909 0)
(-0.0113836 -0.000891741 0)
(-0.0109951 -0.000902048 0)
(-0.0106025 -0.000910788 0)
(-0.0102065 -0.000917922 0)
(-0.00980766 -0.000923412 0)
(-0.00940684 -0.000927222 0)
(-0.00900471 -0.000929319 0)
(-0.00860202 -0.000929669 0)
(-0.00819952 -0.000928241 0)
(-0.00779798 -0.000925009 0)
(-0.00739818 -0.000919945 0)
(-0.00700089 -0.000913026 0)
(-0.00660692 -0.000904233 0)
(-0.00621707 -0.000893547 0)
(-0.00583215 -0.000880955 0)
(-0.00545296 -0.000866444 0)
(-0.00508031 -0.000850009 0)
(-0.00471502 -0.000831645 0)
(-0.00435791 -0.000811355 0)
(-0.00400977 -0.000789146 0)
(-0.00367142 -0.000765028 0)
(-0.00334363 -0.000739021 0)
(-0.0030272 -0.000711149 0)
(-0.00272288 -0.000681446 0)
(-0.00243142 -0.000649954 0)
(-0.00215355 -0.000616726 0)
(-0.00188994 -0.000581824 0)
(-0.00164127 -0.000545326 0)
(-0.00140815 -0.000507326 0)
(-0.00119114 -0.000467936 0)
(-0.000990766 -0.000427293 0)
(-0.000807462 -0.000385559 0)
(-0.000641597 -0.000342927 0)
(-0.000493441 -0.000299631 0)
(-0.000363157 -0.000255954 0)
(-0.000250776 -0.000212236 0)
(-0.000156178 -0.00016889 0)
(-7.90629e-05 -0.000126419 0)
(-1.89201e-05 -8.54369e-05 0)
(2.50074e-05 -4.66912e-05 0)
(5.37637e-05 -1.10981e-05 0)
(6.87247e-05 2.02245e-05 0)
(7.16499e-05 4.59208e-05 0)
(6.47347e-05 6.43669e-05 0)
(5.0621e-05 7.36608e-05 0)
(3.2439e-05 7.16554e-05 0)
(1.45549e-05 5.60716e-05 0)
(3.17542e-06 2.46874e-05 0)
(2.73338e-06 -3.19895e-05 0)
(1.17022e-05 -6.86777e-05 0)
(2.4217e-05 -8.30434e-05 0)
(3.41599e-05 -7.90788e-05 0)
(3.70961e-05 -6.00918e-05 0)
(2.97862e-05 -2.90094e-05 0)
(9.53139e-06 1.16317e-05 0)
(-2.58945e-05 5.96681e-05 0)
(-7.82649e-05 0.000113281 0)
(-0.000148955 0.000170962 0)
(-0.000238997 0.000231453 0)
(-0.000349113 0.000293721 0)
(-0.000479764 0.000356916 0)
(-0.000631183 0.000420333 0)
(-0.000803408 0.000483398 0)
(-0.000996306 0.000545636 0)
(-0.00120961 0.000606656 0)
(-0.00144292 0.000666136 0)
(-0.00169573 0.000723812 0)
(-0.00196748 0.000779467 0)
(-0.00225751 0.000832928 0)
(-0.00256509 0.000884049 0)
(-0.00288947 0.000932718 0)
(-0.00322985 0.000978842 0)
(-0.00358537 0.00102235 0)
(-0.00395517 0.0010632 0)
(-0.00433837 0.00110133 0)
(-0.00473407 0.00113673 0)
(-0.00514133 0.00116938 0)
(-0.00555925 0.00119927 0)
(-0.00598689 0.0012264 0)
(-0.00642331 0.00125079 0)
(-0.00686759 0.00127244 0)
(-0.0073188 0.00129138 0)
(-0.00777602 0.00130763 0)
(-0.00823834 0.00132122 0)
(-0.00870483 0.00133219 0)
(-0.00917461 0.00134057 0)
(-0.00964679 0.00134639 0)
(-0.0101205 0.0013497 0)
(-0.0105949 0.00135055 0)
(-0.011069 0.00134897 0)
(-0.0115422 0.00134502 0)
(-0.0120135 0.00133874 0)
(-0.0124822 0.00133017 0)
(-0.0129475 0.00131939 0)
(-0.0134085 0.00130642 0)
(-0.0138646 0.00129134 0)
(-0.0143151 0.00127419 0)
(-0.0147591 0.00125502 0)
(-0.0151961 0.00123389 0)
(-0.0156253 0.00121086 0)
(-0.0160461 0.00118597 0)
(-0.0164578 0.0011593 0)
(-0.0168599 0.00113089 0)
(-0.0172516 0.00110081 0)
(-0.0176326 0.00106911 0)
(-0.0180021 0.00103584 0)
(-0.0183596 0.00100108 0)
(-0.0187047 0.000964872 0)
(-0.0190368 0.000927282 0)
(-0.0193555 0.000888367 0)
(-0.0196602 0.000848187 0)
(-0.0199507 0.000806804 0)
(-0.0202264 0.000764278 0)
(-0.0204869 0.00072067 0)
(-0.020732 0.000676041 0)
(-0.0209612 0.000630453 0)
(-0.0211742 0.00058397 0)
(-0.0213707 0.000536654 0)
(-0.0215505 0.000488566 0)
(-0.0217133 0.000439772 0)
(-0.0218588 0.000390335 0)
(-0.0219868 0.00034032 0)
(-0.0220971 0.000289793 0)
(-0.0221897 0.000238819 0)
(-0.0222642 0.000187464 0)
(-0.0223207 0.000135796 0)
(-0.022359 8.38828e-05 0)
(-0.022379 3.17921e-05 0)
(-0.0223807 -2.04077e-05 0)
(-0.0223641 -7.26474e-05 0)
(-0.0223291 -0.000124857 0)
(-0.0222759 -0.000176966 0)
(-0.0222043 -0.000228904 0)
(-0.0221146 -0.000280599 0)
(-0.0220068 -0.000331979 0)
(-0.0218811 -0.000382972 0)
(-0.0217375 -0.000433505 0)
(-0.0215763 -0.000483504 0)
(-0.0213977 -0.000532897 0)
(-0.0212019 -0.00058161 0)
(-0.0209891 -0.000629568 0)
(-0.0207597 -0.000676697 0)
(-0.0205139 -0.000722922 0)
(-0.020252 -0.000768169 0)
(-0.0199746 -0.000812362 0)
(-0.0196818 -0.000855428 0)
(-0.0193741 -0.000897291 0)
(-0.019052 -0.000937878 0)
(-0.0187159 -0.000977114 0)
(-0.0183664 -0.00101493 0)
(-0.0180038 -0.00105124 0)
(-0.0176289 -0.00108598 0)
(-0.017242 -0.00111908 0)
(-0.0168438 -0.00115046 0)
(-0.016435 -0.00118006 0)
(-0.0160162 -0.0012078 0)
(-0.0155879 -0.00123361 0)
(-0.015151 -0.00125744 0)
(-0.0147061 -0.00127921 0)
(-0.0142539 -0.00129885 0)
(-0.0137952 -0.00131631 0)
(-0.0133308 -0.00133152 0)
(-0.0128615 -0.00134442 0)
(-0.012388 -0.00135496 0)
(-0.0119112 -0.00136309 0)
(-0.011432 -0.00136874 0)
(-0.0109511 -0.00137188 0)
(-0.0104696 -0.00137244 0)
(-0.00998824 -0.0013704 0)
(-0.00950799 -0.00136571 0)
(-0.00902975 -0.00135833 0)
(-0.00855445 -0.00134823 0)
(-0.00808304 -0.00133538 0)
(-0.00761646 -0.00131976 0)
(-0.00715566 -0.00130135 0)
(-0.00670161 -0.00128014 0)
(-0.00625525 -0.00125611 0)
(-0.00581754 -0.00122927 0)
(-0.00538945 -0.00119962 0)
(-0.0049719 -0.00116718 0)
(-0.00456585 -0.00113196 0)
(-0.00417221 -0.00109399 0)
(-0.00379191 -0.00105332 0)
(-0.00342582 -0.00101 0)
(-0.00307481 -0.0009641 0)
(-0.00273971 -0.000915696 0)
(-0.00242133 -0.000864891 0)
(-0.00212042 -0.000811802 0)
(-0.00183768 -0.000756575 0)
(-0.00157377 -0.00069938 0)
(-0.00132925 -0.000640422 0)
(-0.00110462 -0.000579944 0)
(-0.000900289 -0.000518234 0)
(-0.000716547 -0.000455637 0)
(-0.000553559 -0.000392565 0)
(-0.000411343 -0.00032951 0)
(-0.000289747 -0.000267062 0)
(-0.00018842 -0.000205931 0)
(-0.000106782 -0.000146967 0)
(-4.39919e-05 -9.11962e-05 0)
(1.09155e-06 -3.98521e-05 0)
(2.99494e-05 5.58559e-06 0)
(4.4449e-05 4.33521e-05 0)
(4.68937e-05 7.13607e-05 0)
(4.00393e-05 8.71789e-05 0)
(2.71494e-05 8.80344e-05 0)
(1.26923e-05 7.08547e-05 0)
(2.87148e-06 3.21878e-05 0)
(2.19272e-06 -3.76319e-05 0)
(8.48743e-06 -7.84259e-05 0)
(1.54379e-05 -9.12982e-05 0)
(1.73615e-05 -8.13371e-05 0)
(9.94088e-06 -5.26567e-05 0)
(-1.00763e-05 -8.83033e-06 0)
(-4.54066e-05 4.70518e-05 0)
(-9.82938e-05 0.000112353 0)
(-0.000170541 0.000184841 0)
(-0.000263566 0.000262625 0)
(-0.000378435 0.000344128 0)
(-0.000515911 0.000428026 0)
(-0.000676486 0.000513212 0)
(-0.000860412 0.000598769 0)
(-0.00106773 0.000683931 0)
(-0.00129832 0.000768059 0)
(-0.00155187 0.000850623 0)
(-0.00182798 0.000931186 0)
(-0.00212609 0.00100938 0)
(-0.00244558 0.0010849 0)
(-0.00278572 0.00115751 0)
(-0.00314572 0.00122699 0)
(-0.00352474 0.00129319 0)
(-0.00392188 0.00135598 0)
(-0.0043362 0.00141524 0)
(-0.00476673 0.0014709 0)
(-0.00521246 0.0015229 0)
(-0.00567239 0.00157119 0)
(-0.00614547 0.00161574 0)
(-0.00663066 0.00165655 0)
(-0.0071269 0.0016936 0)
(-0.00763314 0.00172691 0)
(-0.00814832 0.00175648 0)
(-0.00867137 0.00178236 0)
(-0.00920125 0.00180456 0)
(-0.00973692 0.00182312 0)
(-0.0102773 0.00183808 0)
(-0.0108214 0.00184949 0)
(-0.0113683 0.00185741 0)
(-0.0119168 0.00186188 0)
(-0.012466 0.00186296 0)
(-0.013015 0.00186071 0)
(-0.0135627 0.00185519 0)
(-0.0141082 0.00184648 0)
(-0.0146507 0.00183463 0)
(-0.0151892 0.00181972 0)
(-0.0157228 0.00180181 0)
(-0.0162507 0.00178099 0)
(-0.0167719 0.00175731 0)
(-0.0172858 0.00173085 0)
(-0.0177914 0.0017017 0)
(-0.0182881 0.00166992 0)
(-0.0187749 0.00163559 0)
(-0.0192513 0.0015988 0)
(-0.0197165 0.00155961 0)
(-0.0201698 0.00151811 0)
(-0.0206105 0.00147437 0)
(-0.021038 0.00142849 0)
(-0.0214516 0.00138053 0)
(-0.0218508 0.00133058 0)
(-0.022235 0.00127872 0)
(-0.0226037 0.00122504 0)
(-0.0229562 0.00116961 0)
(-0.0232922 0.00111252 0)
(-0.0236111 0.00105385 0)
(-0.0239125 0.000993694 0)
(-0.0241959 0.000932126 0)
(-0.024461 0.000869237 0)
(-0.0247073 0.000805112 0)
(-0.0249346 0.000739838 0)
(-0.0251425 0.000673501 0)
(-0.0253307 0.000606191 0)
(-0.0254989 0.000537996 0)
(-0.0256469 0.000469005 0)
(-0.0257744 0.000399308 0)
(-0.0258813 0.000328997 0)
(-0.0259674 0.000258163 0)
(-0.0260326 0.0001869 0)
(-0.0260768 0.0001153 0)
(-0.0260998 4.34585e-05 0)
(-0.0261016 -2.85312e-05 0)
(-0.0260822 -0.000100573 0)
(-0.0260417 -0.000172571 0)
(-0.0259799 -0.000244426 0)
(-0.025897 -0.000316043 0)