/*--------------------------------*- C++ -*----------------------------------*\
  =========                 |
  \\      /  F ield         | OpenFOAM: The Open Source CFD Toolbox
   \\    /   O peration     | Website:  https://openfoam.org
    \\  /    A nd           | Version:  7
     \\/     M anipulation  |
\*---------------------------------------------------------------------------*/
FoamFile
{
    version     2.0;
    format      ascii;
    class       surfaceScalarField;
    location    "0.15";
    object      phi;
}
// * * * * * * * * * * * * * * * * * * * * * * * * * * * * * * * * * * * * * //

dimensions      [0 3 -1 0 0 0 0];

internalField   nonuniform List<scalar> 
50880
(
6.41447e-12
-6.42452e-12
3.66357e-11
-3.02209e-11
8.12411e-11
-4.46023e-11
1.30391e-10
-4.91513e-11
1.7709e-10
-4.66907e-11
2.16417e-10
-3.93327e-11
2.45004e-10
-2.85876e-11
2.60544e-10
-1.55426e-11
2.61526e-10
-9.81568e-13
2.46975e-10
1.45501e-11
2.16327e-10
3.06509e-11
1.69308e-10
4.70209e-11
1.0587e-10
6.34363e-11
2.61412e-11
7.97294e-11
-6.96212e-11
9.57626e-11
-1.81061e-10
1.11438e-10
-3.07737e-10
1.2668e-10
-4.49156e-10
1.41418e-10
-6.04764e-10
1.55608e-10
-7.7397e-10
1.69206e-10
-9.5617e-10
1.82196e-10
-1.15071e-09
1.94545e-10
-1.35696e-09
2.06251e-10
-1.57424e-09
2.17284e-10
-1.8019e-09
2.27657e-10
-2.03925e-09
2.37348e-10
-2.28562e-09
2.46369e-10
-2.54034e-09
2.54719e-10
-2.80274e-09
2.624e-10
-3.07215e-09
2.69407e-10
-3.34791e-09
2.75752e-10
-3.62934e-09
2.81443e-10
-3.91583e-09
2.86478e-10
-4.20671e-09
2.90884e-10
-4.50137e-09
2.94663e-10
-4.79918e-09
2.97815e-10
-5.09953e-09
3.00354e-10
-5.40183e-09
3.02296e-10
-5.70547e-09
3.03647e-10
-6.00989e-09
3.04417e-10
-6.31452e-09
3.04628e-10
-6.6188e-09
3.04287e-10
-6.9222e-09
3.03395e-10
-7.22417e-09
3.01969e-10
-7.5242e-09
3.00032e-10
-7.82179e-09
2.97592e-10
-8.11645e-09
2.94658e-10
-8.4077e-09
2.91246e-10
-8.69507e-09
2.87372e-10
-8.97811e-09
2.83041e-10
-9.25637e-09
2.78262e-10
-9.52942e-09
2.73055e-10
-9.79686e-09
2.67436e-10
-1.00583e-08
2.61416e-10
-1.03133e-08
2.55004e-10
-1.05615e-08
2.48216e-10
-1.08026e-08
2.41068e-10
-1.10361e-08
2.33569e-10
-1.12619e-08
2.25732e-10
-1.14794e-08
2.17572e-10
-1.16885e-08
2.09104e-10
-1.18889e-08
2.00341e-10
-1.20802e-08
1.91296e-10
-1.22622e-08
1.8198e-10
-1.24346e-08
1.72409e-10
-1.25972e-08
1.62594e-10
-1.27497e-08
1.52554e-10
-1.2892e-08
1.42299e-10
-1.30239e-08
1.31842e-10
-1.31451e-08
1.21196e-10
-1.32554e-08
1.10375e-10
-1.33548e-08
9.9396e-11
-1.34431e-08
8.82724e-11
-1.35201e-08
7.70167e-11
-1.35857e-08
6.56432e-11
-1.36399e-08
5.41676e-11
-1.36825e-08
4.26056e-11
-1.37135e-08
3.09721e-11
-1.37328e-08
1.92813e-11
-1.37403e-08
7.54817e-12
-1.37361e-08
-4.21122e-12
-1.37201e-08
-1.59824e-11
-1.36924e-08
-2.77515e-11
-1.36529e-08
-3.95027e-11
-1.36017e-08
-5.12189e-11
-1.35388e-08
-6.28828e-11
-1.34643e-08
-7.44772e-11
-1.33783e-08
-8.59864e-11
-1.32809e-08
-9.73968e-11
-1.31722e-08
-1.08693e-10
-1.30524e-08
-1.19855e-10
-1.29215e-08
-1.30866e-10
-1.27798e-08
-1.41709e-10
-1.26274e-08
-1.52368e-10
-1.24646e-08
-1.62827e-10
-1.22915e-08
-1.73069e-10
-1.21085e-08
-1.83077e-10
-1.19156e-08
-1.92833e-10
-1.17133e-08
-2.0232e-10
-1.15018e-08
-2.11522e-10
-1.12814e-08
-2.2042e-10
-1.10524e-08
-2.29e-10
-1.08151e-08
-2.37243e-10
-1.057e-08
-2.45131e-10
-1.03173e-08
-2.5265e-10
-1.00576e-08
-2.59784e-10
-9.79104e-09
-2.66517e-10
-9.51821e-09
-2.7283e-10
-9.2395e-09
-2.78707e-10
-8.95537e-09
-2.84131e-10
-8.66628e-09
-2.89089e-10
-8.37272e-09
-2.93563e-10
-8.07518e-09
-2.97542e-10
-7.77417e-09
-3.0101e-10
-7.47022e-09
-3.03951e-10
-7.16387e-09
-3.0635e-10
-6.85567e-09
-3.08195e-10
-6.5462e-09
-3.09474e-10
-6.23602e-09
-3.10176e-10
-5.92574e-09
-3.10285e-10
-5.61595e-09
-3.0979e-10
-5.30727e-09
-3.08679e-10
-5.00033e-09
-3.06943e-10
-4.69576e-09
-3.04576e-10
-4.39419e-09
-3.01568e-10
-4.09628e-09
-2.9791e-10
-3.80269e-09
-2.93596e-10
-3.51407e-09
-2.88619e-10
-3.23109e-09
-2.82976e-10
-2.95443e-09
-2.76665e-10
-2.68475e-09
-2.69682e-10
-2.42273e-09
-2.62023e-10
-2.16904e-09
-2.53689e-10
-1.92436e-09
-2.44681e-10
-1.68936e-09
-2.35003e-10
-1.46469e-09
-2.24662e-10
-1.25102e-09
-2.13669e-10
-1.04899e-09
-2.02034e-10
-8.59217e-10
-1.89772e-10
-6.82316e-10
-1.769e-10
-5.18873e-10
-1.63442e-10
-3.69445e-10
-1.49428e-10
-2.3455e-10
-1.34895e-10
-1.14664e-10
-1.19886e-10
-1.02058e-11
-1.04456e-10
7.84701e-11
-8.86742e-11
1.51097e-10
-7.26265e-11
2.07517e-10
-5.64204e-11
2.47712e-10
-4.01941e-11
2.71838e-10
-2.41244e-11
2.80277e-10
-8.43809e-12
2.73714e-10
6.56413e-12
2.53238e-10
2.04767e-11
2.20497e-10
3.2742e-11
1.77918e-10
4.25796e-11
1.29018e-10
4.89006e-11
7.88047e-11
5.02142e-11
3.43372e-11
4.44678e-11
5.2574e-12
2.90793e-11
5.25838e-12
3.03443e-11
-3.67699e-11
1.01333e-10
-1.01209e-10
1.94943e-10
-1.38222e-10
2.94366e-10
-1.48578e-10
3.85413e-10
-1.37741e-10
4.56943e-10
-1.10863e-10
5.00558e-10
-7.22001e-11
5.10102e-10
-2.50869e-11
4.81197e-10
2.79235e-11
4.1084e-10
8.49022e-11
2.9711e-10
1.44379e-10
1.38906e-10
2.05221e-10
-6.42103e-11
2.66551e-10
-3.12167e-10
3.27691e-10
-6.04506e-10
3.88098e-10
-9.40431e-10
4.47358e-10
-1.31889e-09
5.05138e-10
-1.73864e-09
5.61173e-10
-2.19828e-09
6.15251e-10
-2.69627e-09
6.672e-10
-3.23098e-09
7.16902e-10
-3.80069e-09
7.64249e-10
-4.40362e-09
8.09182e-10
-5.03797e-09
8.51629e-10
-5.70188e-09
8.91567e-10
-6.39348e-09
9.28952e-10
-7.11089e-09
9.6378e-10
-7.8522e-09
9.96041e-10
-8.61553e-09
1.02573e-09
-9.39899e-09
1.05287e-09
-1.02007e-08
1.07746e-09
-1.10188e-08
1.09952e-09
-1.18514e-08
1.11909e-09
-1.26967e-08
1.1362e-09
-1.35529e-08
1.15087e-09
-1.44182e-08
1.16313e-09
-1.52909e-08
1.17303e-09
-1.61692e-08
1.1806e-09
-1.70515e-08
1.18587e-09
-1.7936e-08
1.1889e-09
-1.88211e-08
1.18974e-09
-1.97052e-08
1.18842e-09
-2.05868e-08
1.18497e-09
-2.14643e-08
1.17946e-09
-2.23362e-08
1.17193e-09
-2.3201e-08
1.16242e-09
-2.40573e-08
1.151e-09
-2.49038e-08
1.1377e-09
-2.5739e-08
1.12258e-09
-2.65616e-08
1.10568e-09
-2.73704e-08
1.08705e-09
-2.81641e-08
1.06674e-09
-2.89415e-08
1.04481e-09
-2.97014e-08
1.02131e-09
-3.04427e-08
9.96275e-10
-3.11642e-08
9.69772e-10
-3.1865e-08
9.41848e-10
-3.2544e-08
9.12553e-10
-3.32002e-08
8.81938e-10
-3.38327e-08
8.50057e-10
-3.44406e-08
8.16963e-10
-3.50229e-08
7.82712e-10
-3.5579e-08
7.47356e-10
-3.6108e-08
7.10945e-10
-3.66091e-08
6.73533e-10
-3.70817e-08
6.3517e-10
-3.7525e-08
5.95912e-10
-3.79385e-08
5.55811e-10
-3.83216e-08
5.14921e-10
-3.86737e-08
4.73297e-10
-3.89943e-08
4.30993e-10
-3.9283e-08
3.88066e-10
-3.95393e-08
3.44573e-10
-3.97629e-08
3.0057e-10
-3.99533e-08
2.56114e-10
-4.01104e-08
2.11262e-10
-4.02339e-08
1.66071e-10
-4.03235e-08
1.20594e-10
-4.03791e-08
7.48931e-11
-4.04006e-08
2.90293e-11
-4.03879e-08
-1.69352e-11
-4.03409e-08
-6.29392e-11
-4.02597e-08
-1.08923e-10
-4.01444e-08
-1.54829e-10
-3.9995e-08
-2.00595e-10
-3.98118e-08
-2.46158e-10
-3.95948e-08
-2.91452e-10
-3.93444e-08
-3.36414e-10
-3.90608e-08
-3.8098e-10
-3.87444e-08
-4.25085e-10
-3.83956e-08
-4.68665e-10
-3.80148e-08
-5.11652e-10
-3.76025e-08
-5.53984e-10
-3.71593e-08
-5.95593e-10
-3.66857e-08
-6.36414e-10
-3.61824e-08
-6.76382e-10
-3.565e-08
-7.15431e-10
-3.50894e-08
-7.53493e-10
-3.45012e-08
-7.905e-10
-3.38863e-08
-8.26387e-10
-3.32457e-08
-8.61089e-10
-3.25801e-08
-8.94541e-10
-3.18907e-08
-9.26674e-10
-3.11784e-08
-9.57423e-10
-3.04443e-08
-9.86726e-10
-2.96896e-08
-1.01452e-09
-2.89154e-08
-1.04074e-09
-2.81229e-08
-1.06532e-09
-2.73134e-08
-1.0882e-09
-2.64882e-08
-1.10932e-09
-2.56487e-08
-1.12861e-09
-2.47962e-08
-1.14602e-09
-2.39323e-08
-1.16149e-09
-2.30583e-08
-1.17497e-09
-2.21758e-08
-1.1864e-09
-2.12865e-08
-1.19572e-09
-2.03918e-08
-1.20288e-09
-1.94934e-08
-1.20785e-09
-1.8593e-08
-1.21056e-09
-1.76923e-08
-1.21097e-09
-1.67931e-08
-1.20904e-09
-1.58971e-08
-1.20472e-09
-1.5006e-08
-1.19799e-09
-1.41218e-08
-1.1888e-09
-1.32462e-08
-1.17713e-09
-1.23812e-08
-1.16295e-09
-1.15286e-08
-1.14623e-09
-1.06902e-08
-1.12696e-09
-9.86807e-09
-1.10512e-09
-9.06403e-09
-1.0807e-09
-8.28e-09
-1.0537e-09
-7.51791e-09
-1.02412e-09
-6.77965e-09
-9.91949e-10
-6.06712e-09
-9.57209e-10
-5.38219e-09
-9.19925e-10
-4.72672e-09
-8.80129e-10
-4.10253e-09
-8.37864e-10
-3.51138e-09
-7.93184e-10
-2.95499e-09
-7.46155e-10
-2.43503e-09
-6.96862e-10
-1.95306e-09
-6.45411e-10
-1.51055e-09
-5.91932e-10
-1.10887e-09
-5.36579e-10
-7.49205e-10
-4.79547e-10
-4.3259e-10
-4.21069e-10
-1.59827e-10
-3.61436e-10
6.85515e-11
-3.01004e-10
2.52349e-10
-2.40217e-10
3.91785e-10
-1.79629e-10
4.87599e-10
-1.19938e-10
5.41188e-10
-6.20262e-11
5.54783e-10
-7.02872e-12
5.31681e-10
4.35794e-11
4.76552e-10
8.78713e-11
3.9581e-10
1.23322e-10
2.9806e-10
1.46652e-10
1.9454e-10
1.53736e-10
9.93775e-11
1.39631e-10
2.90145e-11
9.94432e-11
3.42729e-11
4.47509e-11
-8.15244e-11
1.38539e-10
-1.94997e-10
2.54881e-10
-2.54562e-10
3.7237e-10
-2.66056e-10
4.72843e-10
-2.38211e-10
5.41533e-10
-1.79548e-10
5.66776e-10
-9.74414e-11
5.39659e-10
2.0347e-12
4.53552e-10
1.14031e-10
3.03732e-10
2.34727e-10
8.69993e-11
3.61117e-10
-1.98603e-10
4.90822e-10
-5.5402e-10
6.21971e-10
-9.79408e-10
7.53077e-10
-1.47426e-09
8.82948e-10
-2.03754e-09
1.01065e-09
-2.66781e-09
1.13541e-09
-3.36326e-09
1.25663e-09
-4.12182e-09
1.3738e-09
-4.94118e-09
1.48656e-09
-5.81886e-09
1.59458e-09
-6.75225e-09
1.69764e-09
-7.7386e-09
1.79552e-09
-8.77509e-09
1.88812e-09
-9.85882e-09
1.9753e-09
-1.09869e-08
2.057e-09
-1.21563e-08
2.13317e-09
-1.3364e-08
2.20378e-09
-1.46071e-08
2.26881e-09
-1.58825e-08
2.32828e-09
-1.71872e-08
2.38221e-09
-1.85184e-08
2.43063e-09
-1.98729e-08
2.4736e-09
-2.12478e-08
2.51117e-09
-2.26404e-08
2.54341e-09
-2.40476e-08
2.57037e-09
-2.54667e-08
2.59213e-09
-2.68949e-08
2.60877e-09
-2.83294e-08
2.62038e-09
-2.97675e-08
2.62705e-09
-3.12067e-08
2.62887e-09
-3.26442e-08
2.62594e-09
-3.40775e-08
2.61834e-09
-3.55043e-08
2.60619e-09
-3.69219e-08
2.58957e-09
-3.83281e-08
2.5686e-09
-3.97205e-08
2.54339e-09
-4.10968e-08
2.51404e-09
-4.24549e-08
2.48065e-09
-4.37925e-08
2.44333e-09
-4.51077e-08
2.40219e-09
-4.63983e-08
2.35735e-09
-4.76624e-08
2.30891e-09
-4.88981e-08
2.25698e-09
-5.01035e-08
2.20168e-09
-5.12768e-08
2.14312e-09
-5.24164e-08
2.08141e-09
-5.35205e-08
2.01667e-09
-5.45876e-08
1.94901e-09
-5.56161e-08
1.87855e-09
-5.66045e-08
1.80541e-09
-5.75515e-08
1.72969e-09
-5.84556e-08
1.65153e-09
-5.93157e-08
1.57103e-09
-6.01305e-08
1.48831e-09
-6.08988e-08
1.40349e-09
-6.16196e-08
1.3167e-09
-6.22918e-08
1.22803e-09
-6.29145e-08
1.13762e-09
-6.34868e-08
1.04559e-09
-6.40079e-08
9.52057e-10
-6.4477e-08
8.57148e-10
-6.48934e-08
7.60985e-10
-6.52565e-08
6.63695e-10
-6.55658e-08
5.65405e-10
-6.58208e-08
4.66245e-10
-6.60211e-08
3.66338e-10
-6.61663e-08
2.65811e-10
-6.62562e-08
1.64792e-10
-6.62905e-08
6.34163e-11
-6.62693e-08
-3.81828e-11
-6.61924e-08
-1.39868e-10
-6.60598e-08
-2.41504e-10
-6.58717e-08
-3.42955e-10
-6.56282e-08
-4.44087e-10
-6.53296e-08
-5.44762e-10
-6.49762e-08
-6.44839e-10
-6.45684e-08
-7.44177e-10
-6.41068e-08
-8.42635e-10
-6.35918e-08
-9.40067e-10
-6.30241e-08
-1.03633e-09
-6.24045e-08
-1.13128e-09
-6.17337e-08
-1.22477e-09
-6.10126e-08
-1.31666e-09
-6.02422e-08
-1.40681e-09
-5.94236e-08
-1.49506e-09
-5.85577e-08
-1.58127e-09
-5.76459e-08
-1.66529e-09
-5.66894e-08
-1.74699e-09
-5.56896e-08
-1.8262e-09
-5.46479e-08
-1.90278e-09
-5.35659e-08
-1.9766e-09
-5.2445e-08
-2.0475e-09
-5.12871e-08
-2.11535e-09
-5.00939e-08
-2.17999e-09
-4.88671e-08
-2.24129e-09
-4.76087e-08
-2.29912e-09
-4.63207e-08
-2.35332e-09
-4.50051e-08
-2.40377e-09
-4.36641e-08
-2.45032e-09
-4.22999e-08
-2.49285e-09
-4.09147e-08
-2.53123e-09
-3.95108e-08
-2.56533e-09
-3.80908e-08
-2.59503e-09
-3.6657e-08
-2.62021e-09
-3.52119e-08
-2.64075e-09
-3.37583e-08
-2.65655e-09
-3.22986e-08
-2.66749e-09
-3.08357e-08
-2.67348e-09
-2.93723e-08
-2.67441e-09
-2.79111e-08
-2.67019e-09
-2.64551e-08
-2.66074e-09
-2.50071e-08
-2.64597e-09
-2.35701e-08
-2.62582e-09
-2.2147e-08
-2.60023e-09
-2.07408e-08
-2.56913e-09
-1.93546e-08
-2.53248e-09
-1.79913e-08
-2.49024e-09
-1.6654e-08
-2.44239e-09
-1.53458e-08
-2.38892e-09
-1.40697e-08
-2.3298e-09
-1.28288e-08
-2.26506e-09
-1.1626e-08
-2.1947e-09
-1.04645e-08
-2.11877e-09
-9.34705e-09
-2.03734e-09
-8.2767e-09
-1.95048e-09
-7.25626e-09
-1.8583e-09
-6.2885e-09
-1.76094e-09
-5.3761e-09
-1.65856e-09
-4.52159e-09
-1.55137e-09
-3.72739e-09
-1.43961e-09
-2.99572e-09
-1.3236e-09
-2.3286e-09
-1.2037e-09
-1.72779e-09
-1.08036e-09
-1.19474e-09
-9.54118e-10
-7.30537e-10
-8.2564e-10
-3.35806e-10
-6.95733e-10
-1.0631e-11
-5.65391e-10
2.45573e-10
-4.35834e-10
4.34211e-10
-3.08574e-10
5.57686e-10
-1.855e-10
6.19642e-10
-6.89829e-11
6.25238e-10
3.7983e-11
5.81492e-10
1.31617e-10
4.97656e-10
2.07159e-10
3.8561e-10
2.587e-10
2.60216e-10
2.7913e-10
1.39475e-10
2.60371e-10
4.43514e-11
1.94567e-10
7.86235e-11
4.93573e-11
-1.30872e-10
1.49129e-10
-2.94775e-10
2.66876e-10
-3.7231e-10
3.77552e-10
-3.76743e-10
4.6049e-10
-3.21155e-10
4.98701e-10
-2.17759e-10
4.78517e-10
-7.72567e-11
3.89194e-10
9.13544e-11
2.22529e-10
2.80694e-10
-2.75313e-11
4.84786e-10
-3.65209e-10
6.98788e-10
-7.93207e-10
9.18821e-10
-1.31299e-09
1.14175e-09
-1.92496e-09
1.36505e-09
-2.62868e-09
1.58667e-09
-3.423e-09
1.80497e-09
-4.30619e-09
2.0186e-09
-5.27605e-09
2.22648e-09
-6.32996e-09
2.42772e-09
-7.46501e-09
2.62161e-09
-8.67802e-09
2.80759e-09
-9.9656e-09
2.98521e-09
-1.13242e-08
3.15409e-09
-1.275e-08
3.31399e-09
-1.42394e-08
3.46466e-09
-1.57884e-08
3.60597e-09
-1.7393e-08
3.7378e-09
-1.90493e-08
3.86008e-09
-2.07532e-08
3.97277e-09
-2.25008e-08
4.07588e-09
-2.42881e-08
4.16943e-09
-2.61109e-08
4.25347e-09
-2.79654e-08
4.32807e-09
-2.98475e-08
4.39332e-09
-3.17534e-08
4.4493e-09
-3.36792e-08
4.49614e-09
-3.5621e-08
4.53395e-09
-3.75751e-08
4.56285e-09
-3.95377e-08
4.58301e-09
-4.15052e-08
4.59455e-09
-4.3474e-08
4.59764e-09
-4.54405e-08
4.59244e-09
-4.74013e-08
4.57912e-09
-4.93529e-08
4.55785e-09
-5.12922e-08
4.52879e-09
-5.32157e-08
4.49213e-09
-5.51203e-08
4.44805e-09
-5.7003e-08
4.39672e-09
-5.88607e-08
4.33835e-09
-6.06905e-08
4.2731e-09
-6.24895e-08
4.20118e-09
-6.42549e-08
4.12277e-09
-6.5984e-08
4.03806e-09
-6.76743e-08
3.94726e-09
-6.93232e-08
3.85055e-09
-7.09282e-08
3.74814e-09
-7.2487e-08
3.64021e-09
-7.39973e-08
3.52698e-09
-7.54569e-08
3.40863e-09
-7.68638e-08
3.28538e-09
-7.82158e-08
3.15743e-09
-7.95111e-08
3.02497e-09
-8.07478e-08
2.88822e-09
-8.19241e-08
2.74738e-09
-8.30385e-08
2.60266e-09
-8.40893e-08
2.45426e-09
-8.5075e-08
2.3024e-09
-8.59942e-08
2.14726e-09
-8.68457e-08
1.98908e-09
-8.76281e-08
1.82805e-09
-8.83405e-08
1.66441e-09
-8.89817e-08
1.49835e-09
-8.95508e-08
1.33011e-09
-9.0047e-08
1.1599e-09
-9.04695e-08
9.87938e-10
-9.08177e-08
8.14454e-10
-9.10911e-08
6.39669e-10
-9.12891e-08
4.63808e-10
-9.14114e-08
2.87099e-10
-9.14577e-08
1.09774e-10
-9.1428e-08
-6.79345e-11
-9.13221e-08
-2.45788e-10
-9.114e-08
-4.2355e-10
-9.0882e-08
-6.00982e-10
-9.05482e-08
-7.77844e-10
-9.01391e-08
-9.53895e-10
-8.9655e-08
-1.12889e-09
-8.90966e-08
-1.30258e-09
-8.84645e-08
-1.47472e-09
-8.77595e-08
-1.64506e-09
-8.69825e-08
-1.81335e-09
-8.61345e-08
-1.97933e-09
-8.52165e-08
-2.14275e-09
-8.42298e-08
-2.30336e-09
-8.31757e-08
-2.46091e-09
-8.20556e-08
-2.61514e-09
-8.08711e-08
-2.76579e-09
-7.96238e-08
-2.91261e-09
-7.83154e-08
-3.05534e-09
-7.69479e-08
-3.19373e-09
-7.55231e-08
-3.32753e-09
-7.40433e-08
-3.45647e-09
-7.25105e-08
-3.58031e-09
-7.0927e-08
-3.6988e-09
-6.92953e-08
-3.8117e-09
-6.76178e-08
-3.91875e-09
-6.58972e-08
-4.01972e-09
-6.41362e-08
-4.11436e-09
-6.23375e-08
-4.20243e-09
-6.05041e-08
-4.2837e-09
-5.8639e-08
-4.35795e-09
-5.67453e-08
-4.42495e-09
-5.48262e-08
-4.48449e-09
-5.28849e-08
-4.53634e-09
-5.09247e-08
-4.58031e-09
-4.89493e-08
-4.6162e-09
-4.6962e-08
-4.64381e-09
-4.49666e-08
-4.66297e-09
-4.29666e-08
-4.67349e-09
-4.09658e-08
-4.67522e-09
-3.8968e-08
-4.66798e-09
-3.69771e-08
-4.65164e-09
-3.4997e-08
-4.62608e-09
-3.30316e-08
-4.59116e-09
-3.10851e-08
-4.54679e-09
-2.91613e-08
-4.49287e-09
-2.72645e-08
-4.42933e-09
-2.53986e-08
-4.3561e-09
-2.35678e-08
-4.27317e-09
-2.17763e-08
-4.1805e-09
-2.0028e-08
-4.07809e-09
-1.8327e-08
-3.96597e-09
-1.66775e-08
-3.8442e-09
-1.50835e-08
-3.71285e-09
-1.35487e-08
-3.57206e-09
-1.20772e-08
-3.42198e-09
-1.06727e-08
-3.26281e-09
-9.33885e-09
-3.09482e-09
-8.07911e-09
-2.91831e-09
-6.89681e-09
-2.73366e-09
-5.79507e-09
-2.54135e-09
-4.77674e-09
-2.34193e-09
-3.84436e-09
-2.13608e-09
-3.00013e-09
-1.92459e-09
-2.24581e-09
-1.70844e-09
-1.58263e-09
-1.48881e-09
-1.01125e-09
-1.26712e-09
-5.31555e-10
-1.04509e-09
-1.4258e-10
-8.24809e-10
1.57696e-10
-6.08849e-10
3.72553e-10
-4.00355e-10
5.0677e-10
-2.03201e-10
5.66924e-10
-2.2171e-11
5.61696e-10
1.36845e-10
5.02222e-10
2.66635e-10
4.02438e-10
3.58485e-10
2.79435e-10
4.02132e-10
1.53796e-10
3.86012e-10
5.01463e-11
2.98217e-10
1.28769e-10
4.69889e-11
-1.77862e-10
1.38688e-10
-3.86481e-10
2.39925e-10
-4.73541e-10
3.23425e-10
-4.60244e-10
3.66921e-10
-3.64651e-10
3.52132e-10
-2.02974e-10
2.64212e-10
1.06669e-11
9.12838e-11
2.6428e-10
-1.75885e-10
5.47868e-10
-5.44253e-10
8.53151e-10
-1.01879e-09
1.17333e-09
-1.60281e-09
1.50284e-09
-2.29817e-09
1.83711e-09
-3.10553e-09
2.1724e-09
-4.02453e-09
2.50567e-09
-5.05396e-09
2.8344e-09
-6.1919e-09
3.15654e-09
-7.43581e-09
3.47039e-09
-8.78269e-09
3.7746e-09
-1.02291e-08
4.06802e-09
-1.17713e-08
4.34977e-09
-1.34051e-08
4.61909e-09
-1.51265e-08
4.87541e-09
-1.69307e-08
5.11827e-09
-1.88134e-08
5.3473e-09
-2.07696e-08
5.56224e-09
-2.27947e-08
5.76287e-09
-2.48837e-08
5.94908e-09
-2.70317e-08
6.12078e-09
-2.92338e-08
6.27794e-09
-3.14849e-08
6.4206e-09
-3.37802e-08
6.5488e-09
-3.61148e-08
6.66262e-09
-3.84837e-08
6.76219e-09
-4.0882e-08
6.84763e-09
-4.3305e-08
6.9191e-09
-4.57478e-08
6.97678e-09
-4.82058e-08
7.02084e-09
-5.06743e-08
7.05151e-09
-5.31487e-08
7.069e-09
-5.56246e-08
7.07354e-09
-5.80976e-08
7.06537e-09
-6.05632e-08
7.04475e-09
-6.30173e-08
7.01192e-09
-6.54556e-08
6.96714e-09
-6.78742e-08
6.91069e-09
-7.0269e-08
6.84284e-09
-7.26361e-08
6.76386e-09
-7.49718e-08
6.67404e-09
-7.72724e-08
6.57365e-09
-7.95342e-08
6.463e-09
-8.17538e-08
6.34237e-09
-8.39278e-08
6.21205e-09
-8.60529e-08
6.07236e-09
-8.81259e-08
5.92357e-09
-9.01438e-08
5.766e-09
-9.21035e-08
5.59995e-09
-9.40022e-08
5.42572e-09
-9.58372e-08
5.24363e-09
-9.76058e-08
5.05398e-09
-9.93055e-08
4.85708e-09
-1.00934e-07
4.65326e-09
-1.02488e-07
4.44283e-09
-1.03967e-07
4.2261e-09
-1.05368e-07
4.00338e-09
-1.06689e-07
3.77501e-09
-1.07927e-07
3.54129e-09
-1.09083e-07
3.30254e-09
-1.10153e-07
3.05911e-09
-1.11136e-07
2.8113e-09
-1.12031e-07
2.55946e-09
-1.12837e-07
2.30392e-09
-1.13552e-07
2.04502e-09
-1.14175e-07
1.78309e-09
-1.14705e-07
1.51848e-09
-1.15142e-07
1.25153e-09
-1.15485e-07
9.82582e-10
-1.15733e-07
7.11986e-10
-1.15886e-07
4.40097e-10
-1.15944e-07
1.67271e-10
-1.15906e-07
-1.0613e-10
-1.15772e-07
-3.79744e-10
-1.15542e-07
-6.53205e-10
-1.15217e-07
-9.26149e-10
-1.14797e-07
-1.1982e-09
-1.14282e-07
-1.469e-09
-1.13672e-07
-1.73815e-09
-1.1297e-07
-2.00529e-09
-1.12174e-07
-2.27002e-09
-1.11287e-07
-2.53198e-09
-1.1031e-07
-2.79076e-09
-1.09243e-07
-3.04598e-09
-1.08089e-07
-3.29725e-09
-1.06848e-07
-3.54419e-09
-1.05522e-07
-3.7864e-09
-1.04114e-07
-4.02349e-09
-1.02625e-07
-4.25508e-09
-1.01057e-07
-4.48076e-09
-9.94119e-08
-4.70014e-09
-9.76928e-08
-4.91284e-09
-9.59018e-08
-5.11846e-09
-9.40417e-08
-5.31662e-09
-9.21151e-08
-5.50692e-09
-9.01249e-08
-5.68899e-09
-8.80741e-08
-5.86246e-09
-8.59659e-08
-6.02694e-09
-8.38036e-08
-6.18207e-09
-8.15905e-08
-6.32746e-09
-7.93301e-08
-6.46277e-09
-7.70262e-08
-6.58764e-09
-7.46824e-08
-6.70171e-09
-7.23027e-08
-6.80466e-09
-6.98911e-08
-6.89615e-09
-6.74516e-08
-6.97586e-09
-6.49884e-08
-7.04346e-09
-6.25059e-08
-7.09868e-09
-6.00085e-08
-7.14121e-09
-5.75007e-08
-7.17079e-09
-5.49871e-08
-7.18714e-09
-5.24723e-08
-7.19001e-09
-4.99611e-08
-7.17918e-09
-4.74583e-08
-7.15444e-09
-4.49688e-08
-7.11558e-09
-4.24975e-08
-7.06244e-09
-4.00494e-08
-6.99485e-09
-3.76296e-08
-6.9127e-09
-3.52431e-08
-6.81587e-09
-3.28949e-08
-6.70429e-09
-3.05901e-08
-6.57792e-09
-2.83339e-08
-6.43674e-09
-2.61312e-08
-6.28076e-09
-2.39871e-08
-6.11005e-09
-2.19066e-08
-5.92471e-09
-1.98946e-08
-5.72489e-09
-1.79558e-08
-5.5108e-09
-1.60951e-08
-5.28271e-09
-1.4317e-08
-5.04095e-09
-1.26258e-08
-4.78595e-09
-1.10259e-08
-4.51821e-09
-9.52123e-09
-4.23835e-09
-8.11546e-09
-3.94713e-09
-6.81197e-09
-3.64542e-09
-5.61375e-09
-3.33429e-09
-4.52333e-09
-3.01501e-09
-3.5427e-09
-2.68907e-09
-2.67321e-09
-2.3583e-09
-1.91546e-09
-2.02487e-09
-1.26918e-09
-1.69137e-09
-7.33044e-10
-1.36094e-09
-3.04529e-10
-1.03736e-09
2.03247e-11
-7.25207e-10
2.47148e-10
-4.30024e-10
3.83506e-10
-1.58528e-10
4.39193e-10
8.11618e-11
4.26532e-10
2.79298e-10
3.60721e-10
4.24296e-10
2.6023e-10
5.02625e-10
1.47316e-10
4.98926e-10
4.89984e-11
3.96535e-10
1.77769e-10
3.98068e-11
-2.17669e-10
1.1253e-10
-4.59203e-10
1.82747e-10
-5.43748e-10
2.22384e-10
-4.99884e-10
2.08498e-10
-3.50766e-10
1.222e-10
-1.16671e-10
-5.19545e-11
1.84821e-10
-3.26429e-10
5.38754e-10
-7.11044e-10
9.32479e-10
-1.21331e-09
1.35541e-09
-1.83869e-09
1.79871e-09
-2.59088e-09
2.25503e-09
-3.47204e-09
2.71827e-09
-4.48302e-09
3.18338e-09
-5.62349e-09
3.64616e-09
-6.89223e-09
4.10314e-09
-8.28714e-09
4.55144e-09
-9.80543e-09
4.98869e-09
-1.14437e-08
5.41292e-09
-1.31982e-08
5.82251e-09
-1.50646e-08
6.21615e-09
-1.70383e-08
6.59275e-09
-1.91143e-08
6.95146e-09
-2.12876e-08
7.29155e-09
-2.35528e-08
7.61251e-09
-2.59045e-08
7.91387e-09
-2.83369e-08
8.19535e-09
-3.08446e-08
8.4567e-09
-3.34216e-08
8.6978e-09
-3.60622e-08
8.91858e-09
-3.87607e-08
9.11904e-09
-4.15111e-08
9.29922e-09
-4.43077e-08
9.45923e-09
-4.71447e-08
9.59921e-09
-5.00164e-08
9.71932e-09
-5.29171e-08
9.81975e-09
-5.5841e-08
9.90076e-09
-5.87828e-08
9.96258e-09
-6.17368e-08
1.00055e-08
-6.46976e-08
1.00298e-08
-6.76599e-08
1.00358e-08
-7.06184e-08
1.00239e-08
-7.3568e-08
9.99436e-09
-7.65036e-08
9.94755e-09
-7.94203e-08
9.88385e-09
-8.23133e-08
9.80362e-09
-8.51777e-08
9.70723e-09
-8.80089e-08
9.59509e-09
-9.08024e-08
9.46758e-09
-9.35539e-08
9.32511e-09
-9.6259e-08
9.16809e-09
-9.89135e-08
8.99691e-09
-1.01513e-07
8.81201e-09
-1.04055e-07
8.61379e-09
-1.06534e-07
8.40268e-09
-1.08947e-07
8.17911e-09
-1.11291e-07
7.9435e-09
-1.13561e-07
7.6963e-09
-1.15756e-07
7.43793e-09
-1.1787e-07
7.16883e-09
-1.19903e-07
6.88946e-09
-1.2185e-07
6.60025e-09
-1.23709e-07
6.30165e-09
-1.25477e-07
5.99411e-09
-1.27151e-07
5.67808e-09
-1.2873e-07
5.35402e-09
-1.30211e-07
5.02237e-09
-1.31592e-07
4.6836e-09
-1.32872e-07
4.33817e-09
-1.34047e-07
3.98655e-09
-1.35117e-07
3.6292e-09
-1.36079e-07
3.26661e-09
-1.36933e-07
2.89925e-09
-1.37678e-07
2.52761e-09
-1.38312e-07
2.15217e-09
-1.38834e-07
1.77341e-09
-1.39243e-07
1.39184e-09
-1.39539e-07
1.00794e-09
-1.39721e-07
6.22214e-10
-1.39789e-07
2.35178e-10
-1.39742e-07
-1.5266e-10
-1.39581e-07
-5.40786e-10
-1.39306e-07
-9.2868e-10
-1.38916e-07
-1.31582e-09
-1.38413e-07
-1.70169e-09
-1.37796e-07
-2.08574e-09
-1.37066e-07
-2.46746e-09
-1.36225e-07
-2.8463e-09
-1.35274e-07
-3.22171e-09
-1.34213e-07
-3.59316e-09
-1.33043e-07
-3.9601e-09
-1.31767e-07
-4.32197e-09
-1.30386e-07
-4.67822e-09
-1.28902e-07
-5.02831e-09
-1.27317e-07
-5.37169e-09
-1.25633e-07
-5.70779e-09
-1.23852e-07
-6.03607e-09
-1.21976e-07
-6.35596e-09
-1.2001e-07
-6.66691e-09
-1.17954e-07
-6.96837e-09
-1.15813e-07
-7.25979e-09
-1.13589e-07
-7.54062e-09
-1.11285e-07
-7.81032e-09
-1.08906e-07
-8.06834e-09
-1.06454e-07
-8.31416e-09
-1.03934e-07
-8.54724e-09
-1.01349e-07
-8.76706e-09
-9.87034e-08
-8.9731e-09
-9.60013e-08
-9.16485e-09
-9.32471e-08
-9.34181e-09
-9.04453e-08
-9.5035e-09
-8.76006e-08
-9.64944e-09
-8.47175e-08
-9.77916e-09
-8.18012e-08
-9.89221e-09
-7.88565e-08
-9.98816e-09
-7.58886e-08
-1.00666e-08
-7.29027e-08
-1.01271e-08
-6.99042e-08
-1.01693e-08
-6.68985e-08
-1.01928e-08
-6.38912e-08
-1.01973e-08
-6.08879e-08
-1.01825e-08
-5.78943e-08
-1.0148e-08
-5.49162e-08
-1.00937e-08
-5.19594e-08
-1.00192e-08
-4.90298e-08
-9.92442e-09
-4.61334e-08
-9.80912e-09
-4.32761e-08
-9.67317e-09
-4.04639e-08
-9.5165e-09
-3.77027e-08
-9.33906e-09
-3.49986e-08
-9.14085e-09
-3.23575e-08
-8.9219e-09
-2.97852e-08
-8.68233e-09
-2.72876e-08
-8.4223e-09
-2.48704e-08
-8.14207e-09
-2.25393e-08
-7.84195e-09
-2.02996e-08
-7.52235e-09
-1.81568e-08
-7.18377e-09
-1.61159e-08
-6.82685e-09
-1.41818e-08
-6.45234e-09
-1.2359e-08
-6.06115e-09
-1.06517e-08
-5.65437e-09
-9.06385e-09
-5.2333e-09
-7.5987e-09
-4.79944e-09
-6.25908e-09
-4.35462e-09
-5.04717e-09
-3.90099e-09
-3.96439e-09
-3.44108e-09
-3.01132e-09
-2.97794e-09
-2.18753e-09
-2.51515e-09
-1.49147e-09
-2.057e-09
-9.20212e-10
-1.60862e-09
-4.69326e-10
-1.17609e-09
-1.32616e-10
-7.66732e-10
9.81172e-11
-3.89259e-10
2.33332e-10
-5.40505e-11
2.86034e-10
2.26599e-10
2.72104e-10
4.38228e-10
2.10731e-10
5.64001e-10
1.25008e-10
5.84648e-10
4.29715e-11
4.78573e-10
2.20742e-10
2.93594e-11
-2.47028e-10
7.48882e-11
-5.04731e-10
1.02669e-10
-5.7153e-10
8.50414e-11
-4.82258e-10
-8.25503e-13
-2.64893e-10
-1.73847e-10
5.63429e-11
-4.49555e-10
4.60531e-10
-8.4058e-10
9.2978e-10
-1.35697e-09
1.44887e-09
-2.00649e-09
2.00493e-09
-2.79483e-09
2.58705e-09
-3.7259e-09
3.18611e-09
-4.80203e-09
3.7944e-09
-6.02414e-09
4.40548e-09
-7.39194e-09
5.01396e-09
-8.90411e-09
5.6153e-09
-1.05584e-08
6.20574e-09
-1.23518e-08
6.78212e-09
-1.42807e-08
7.3418e-09
-1.63408e-08
7.88263e-09
-1.85275e-08
8.40279e-09
-2.08355e-08
8.9008e-09
-2.32595e-08
9.37546e-09
-2.57938e-08
9.82579e-09
-2.84322e-08
1.0251e-08
-3.11688e-08
1.06505e-08
-3.39972e-08
1.10238e-08
-3.6911e-08
1.13705e-08
-3.99037e-08
1.16905e-08
-4.29687e-08
1.19836e-08
-4.60995e-08
1.22498e-08
-4.92893e-08
1.24891e-08
-5.25317e-08
1.27016e-08
-5.58201e-08
1.28875e-08
-5.91478e-08
1.3047e-08
-6.25084e-08
1.31803e-08
-6.58953e-08
1.32877e-08
-6.93024e-08
1.33696e-08
-7.27231e-08
1.34262e-08
-7.61514e-08
1.34581e-08
-7.9581e-08
1.34654e-08
-8.30059e-08
1.34489e-08
-8.64203e-08
1.34087e-08
-8.98182e-08
1.33455e-08
-9.3194e-08
1.32597e-08
-9.65422e-08
1.31517e-08
-9.98571e-08
1.30222e-08
-1.03134e-07
1.28715e-08
-1.06366e-07
1.27003e-08
-1.0955e-07
1.2509e-08
-1.1268e-07
1.22982e-08
-1.15752e-07
1.20685e-08
-1.1876e-07
1.18203e-08
-1.21701e-07
1.15543e-08
-1.24569e-07
1.1271e-08
-1.27361e-07
1.0971e-08
-1.30072e-07
1.06549e-08
-1.32699e-07
1.03232e-08
-1.35238e-07
9.97652e-09
-1.37685e-07
9.61546e-09
-1.40036e-07
9.2406e-09
-1.42288e-07
8.85254e-09
-1.44438e-07
8.45189e-09
-1.46483e-07
8.03924e-09
-1.4842e-07
7.61519e-09
-1.50247e-07
7.18037e-09
-1.5196e-07
6.73537e-09
-1.53557e-07
6.28082e-09
-1.55036e-07
5.81734e-09
-1.56395e-07
5.34556e-09
-1.57632e-07
4.86611e-09
-1.58745e-07
4.37963e-09
-1.59733e-07
3.88676e-09
-1.60593e-07
3.38815e-09
-1.61325e-07
2.88445e-09
-1.61928e-07
2.37633e-09
-1.62401e-07
1.86443e-09
-1.62742e-07
1.34944e-09
-1.62952e-07
8.32014e-10
-1.6303e-07
3.12844e-10
-1.62975e-07
-2.07382e-10
-1.62788e-07
-7.27976e-10
-1.62468e-07
-1.24824e-09
-1.62017e-07
-1.76748e-09
-1.61434e-07
-2.28498e-09
-1.60719e-07
-2.80004e-09
-1.59875e-07
-3.31193e-09
-1.58901e-07
-3.81995e-09
-1.57799e-07
-4.32335e-09
-1.56571e-07
-4.82142e-09
-1.55218e-07
-5.31341e-09
-1.53741e-07
-5.79859e-09
-1.52143e-07
-6.27622e-09
-1.50426e-07
-6.74557e-09
-1.48592e-07
-7.2059e-09
-1.46643e-07
-7.65646e-09
-1.44583e-07
-8.09651e-09
-1.42413e-07
-8.5253e-09
-1.40138e-07
-8.9421e-09
-1.3776e-07
-9.34617e-09
-1.35283e-07
-9.73677e-09
-1.32711e-07
-1.01132e-08
-1.30047e-07
-1.04746e-08
-1.27294e-07
-1.08204e-08
-1.24459e-07
-1.11499e-08
-1.21544e-07
-1.14623e-08
-1.18554e-07
-1.17569e-08
-1.15494e-07
-1.20331e-08
-1.12368e-07
-1.22901e-08
-1.09183e-07
-1.25274e-08
-1.05942e-07
-1.27442e-08
-1.02652e-07
-1.29399e-08
-9.9317e-08
-1.31139e-08
-9.59436e-08
-1.32657e-08
-9.25372e-08
-1.33945e-08
-8.91038e-08
-1.35e-08
-8.56494e-08
-1.35815e-08
-8.21801e-08
-1.36386e-08
-7.87022e-08
-1.36707e-08
-7.52221e-08
-1.36774e-08
-7.17462e-08
-1.36584e-08
-6.82811e-08
-1.36132e-08
-6.48333e-08
-1.35415e-08
-6.14096e-08
-1.34429e-08
-5.80167e-08
-1.33173e-08
-5.46614e-08
-1.31644e-08
-5.13504e-08
-1.29841e-08
-4.80907e-08
-1.27762e-08
-4.48889e-08
-1.25408e-08
-4.1752e-08
-1.22778e-08
-3.86866e-08
-1.19873e-08
-3.56994e-08
-1.16695e-08
-3.27971e-08
-1.13247e-08
-2.9986e-08
-1.09531e-08
-2.72726e-08
-1.05554e-08
-2.4663e-08
-1.0132e-08
-2.21631e-08
-9.68362e-09
-1.97788e-08
-9.21122e-09
-1.75153e-08
-8.71582e-09
-1.53778e-08
-8.19866e-09
-1.33709e-08
-7.66124e-09
-1.14989e-08
-7.10531e-09
-9.7654e-09
-6.53293e-09
-8.17349e-09
-5.94653e-09
-6.72551e-09
-5.34897e-09
-5.42297e-09
-4.74362e-09
-4.26644e-09
-4.13446e-09
-3.25543e-09
-3.52616e-09
-2.38821e-09
-2.92423e-09
-1.66163e-09
-2.33519e-09
-1.07099e-09
-1.76674e-09
-6.09752e-10
-1.22796e-09
-2.69409e-10
-7.29601e-10
-3.91883e-11
-2.84271e-10
9.41867e-11
9.32254e-11
1.46815e-10
3.85603e-10
1.38031e-10
5.72785e-10
9.09932e-11
6.31685e-10
3.35566e-11
5.36012e-10
2.543e-10
1.66852e-11
-2.6372e-10
2.90336e-11
-5.1708e-10
5.61198e-12
-5.48107e-10
-7.98872e-11
-3.96762e-10
-2.49502e-10
-9.52785e-11
-5.21627e-10
3.2847e-10
-9.11495e-10
8.50396e-10
-1.43155e-09
1.44984e-09
-2.09177e-09
2.10909e-09
-2.89988e-09
2.81303e-09
-3.86161e-09
3.54879e-09
-4.98091e-09
4.3054e-09
-6.2601e-09
5.07359e-09
-7.70011e-09
5.84549e-09
-9.30059e-09
6.61444e-09
-1.10601e-08
7.37482e-09
-1.29763e-08
8.1219e-09
-1.50458e-08
8.85168e-09
-1.72649e-08
9.56083e-09
-1.96288e-08
1.02465e-08
-2.21325e-08
1.09065e-08
-2.47704e-08
1.15387e-08
-2.75367e-08
1.21417e-08
-3.04249e-08
1.2714e-08
-3.34286e-08
1.32547e-08
-3.65411e-08
1.37629e-08
-3.97553e-08
1.4238e-08
-4.30642e-08
1.46794e-08
-4.64607e-08
1.50869e-08
-4.99374e-08
1.54603e-08
-5.3487e-08
1.57994e-08
-5.71022e-08
1.61043e-08
-6.07757e-08
1.63751e-08
-6.45001e-08
1.66119e-08
-6.82681e-08
1.6815e-08
-7.20724e-08
1.69847e-08
-7.59059e-08
1.71212e-08
-7.97613e-08
1.7225e-08
-8.36317e-08
1.72966e-08
-8.751e-08
1.73364e-08
-9.13894e-08
1.73448e-08
-9.52631e-08
1.73226e-08
-9.91244e-08
1.72701e-08
-1.02967e-07
1.7188e-08
-1.06784e-07
1.70769e-08
-1.1057e-07
1.69373e-08
-1.14318e-07
1.67701e-08
-1.18022e-07
1.65757e-08
-1.21676e-07
1.63548e-08
-1.25275e-07