/*--------------------------------*- C++ -*----------------------------------*\
  =========                 |
  \\      /  F ield         | OpenFOAM: The Open Source CFD Toolbox
   \\    /   O peration     | Website:  https://openfoam.org
    \\  /    A nd           | Version:  7
     \\/     M anipulation  |
\*---------------------------------------------------------------------------*/
FoamFile
{
    version     2.0;
    format      ascii;
    class       volVectorField;
    location    "0.15";
    object      U;
}
// * * * * * * * * * * * * * * * * * * * * * * * * * * * * * * * * * * * * * //

dimensions      [0 1 -1 0 0 0 0];

internalField   nonuniform List<vector> 
25600
(
(2.30148e-07 -2.14966e-07 0)
(2.92072e-06 -1.78697e-06 0)
(9.1326e-06 -2.80089e-06 0)
(1.6913e-05 -3.15926e-06 0)
(2.47861e-05 -3.06937e-06 0)
(3.18135e-05 -2.69326e-06 0)
(3.73513e-05 -2.13353e-06 0)
(4.0954e-05 -1.46015e-06 0)
(4.23262e-05 -7.19543e-07 0)
(4.12727e-05 6.22719e-08 0)
(3.76754e-05 8.62189e-07 0)
(3.14706e-05 1.66854e-06 0)
(2.26356e-05 2.47076e-06 0)
(1.11764e-05 3.25966e-06 0)
(-2.87292e-06 4.03316e-06 0)
(-1.94621e-05 4.78355e-06 0)
(-3.8529e-05 5.50982e-06 0)
(-5.99953e-05 6.21057e-06 0)
(-8.37775e-05 6.88075e-06 0)
(-0.000109786 7.52041e-06 0)
(-0.000137921 8.13046e-06 0)
(-0.000168085 8.7088e-06 0)
(-0.000200174 9.25376e-06 0)
(-0.000234081 9.76809e-06 0)
(-0.000269702 1.02488e-05 0)
(-0.000306928 1.06968e-05 0)
(-0.000345651 1.11139e-05 0)
(-0.000385764 1.14999e-05 0)
(-0.000427161 1.18537e-05 0)
(-0.000469731 1.21756e-05 0)
(-0.000513369 1.24673e-05 0)
(-0.00055797 1.27281e-05 0)
(-0.000603429 1.29585e-05 0)
(-0.000649643 1.31617e-05 0)
(-0.000696511 1.33355e-05 0)
(-0.000743933 1.34781e-05 0)
(-0.00079181 1.35918e-05 0)
(-0.000840044 1.3679e-05 0)
(-0.000888542 1.37395e-05 0)
(-0.00093721 1.3774e-05 0)
(-0.000985955 1.37845e-05 0)
(-0.00103469 1.37702e-05 0)
(-0.00108332 1.37292e-05 0)
(-0.00113177 1.36627e-05 0)
(-0.00117995 1.35735e-05 0)
(-0.00122778 1.34625e-05 0)
(-0.00127518 1.33291e-05 0)
(-0.00132207 1.31742e-05 0)
(-0.00136838 1.29986e-05 0)
(-0.00141403 1.28025e-05 0)
(-0.00145895 1.25858e-05 0)
(-0.00150308 1.23493e-05 0)
(-0.00154633 1.20946e-05 0)
(-0.00158865 1.18221e-05 0)
(-0.00162998 1.15321e-05 0)
(-0.00167026 1.12248e-05 0)
(-0.00170941 1.09014e-05 0)
(-0.0017474 1.05623e-05 0)
(-0.00178415 1.02079e-05 0)
(-0.00181963 9.83893e-06 0)
(-0.00185378 9.45599e-06 0)
(-0.00188654 9.05994e-06 0)
(-0.00191788 8.65146e-06 0)
(-0.00194776 8.23089e-06 0)
(-0.00197612 7.7985e-06 0)
(-0.00200293 7.35498e-06 0)
(-0.00202815 6.90146e-06 0)
(-0.00205175 6.43861e-06 0)
(-0.00207368 5.96664e-06 0)
(-0.00209393 5.48586e-06 0)
(-0.00211247 4.99703e-06 0)
(-0.00212925 4.50106e-06 0)
(-0.00214427 3.99865e-06 0)
(-0.0021575 3.49024e-06 0)
(-0.00216892 2.97642e-06 0)
(-0.00217851 2.45798e-06 0)
(-0.00218625 1.93567e-06 0)
(-0.00219214 1.4101e-06 0)
(-0.00219616 8.81781e-07 0)
(-0.00219831 3.51313e-07 0)
(-0.00219858 -1.80427e-07 0)
(-0.00219696 -7.12607e-07 0)
(-0.00219346 -1.24461e-06 0)
(-0.00218808 -1.77589e-06 0)
(-0.00218082 -2.30585e-06 0)
(-0.00217169 -2.83367e-06 0)
(-0.0021607 -3.35838e-06 0)
(-0.00214786 -3.87916e-06 0)
(-0.00213318 -4.39549e-06 0)
(-0.00211669 -4.90679e-06 0)
(-0.0020984 -5.41225e-06 0)
(-0.00207834 -5.91095e-06 0)
(-0.00205652 -6.40202e-06 0)
(-0.00203299 -6.8847e-06 0)
(-0.00200777 -7.35841e-06 0)
(-0.00198089 -7.82254e-06 0)
(-0.00195239 -8.27626e-06 0)
(-0.0019223 -8.71861e-06 0)
(-0.00189068 -9.14873e-06 0)
(-0.00185756 -9.56596e-06 0)
(-0.00182299 -9.96969e-06 0)
(-0.00178703 -1.03592e-05 0)
(-0.00174972 -1.07334e-05 0)
(-0.00171111 -1.10915e-05 0)
(-0.00167127 -1.1433e-05 0)
(-0.00163026 -1.17571e-05 0)
(-0.00158814 -1.20633e-05 0)
(-0.00154498 -1.23505e-05 0)
(-0.00150084 -1.2618e-05 0)
(-0.00145579 -1.2865e-05 0)
(-0.00140992 -1.30907e-05 0)
(-0.00136329 -1.32945e-05 0)
(-0.00131598 -1.3476e-05 0)
(-0.00126807 -1.36344e-05 0)
(-0.00121966 -1.37688e-05 0)
(-0.00117081 -1.38785e-05 0)
(-0.00112162 -1.39629e-05 0)
(-0.00107219 -1.40217e-05 0)
(-0.00102259 -1.40541e-05 0)
(-0.000972934 -1.40596e-05 0)
(-0.000923304 -1.40373e-05 0)
(-0.000873803 -1.39867e-05 0)
(-0.000824528 -1.39075e-05 0)
(-0.000775582 -1.37991e-05 0)
(-0.000727065 -1.36614e-05 0)
(-0.000679082 -1.34938e-05 0)
(-0.000631736 -1.32958e-05 0)
(-0.000585134 -1.30672e-05 0)
(-0.00053938 -1.28078e-05 0)
(-0.000494583 -1.25175e-05 0)
(-0.000450849 -1.21958e-05 0)
(-0.000408287 -1.18426e-05 0)
(-0.000367004 -1.14575e-05 0)
(-0.000327109 -1.10406e-05 0)
(-0.000288709 -1.05918e-05 0)
(-0.00025191 -1.01113e-05 0)
(-0.000216819 -9.59945e-06 0)
(-0.000183539 -9.05665e-06 0)
(-0.000152171 -8.48327e-06 0)
(-0.000122814 -7.87987e-06 0)
(-9.55655e-05 -7.24715e-06 0)
(-7.05158e-05 -6.58607e-06 0)
(-4.77517e-05 -5.898e-06 0)
(-2.7353e-05 -5.18464e-06 0)
(-9.39187e-06 -4.44796e-06 0)
(6.069e-06 -3.69059e-06 0)
(1.89795e-05 -2.91589e-06 0)
(2.93046e-05 -2.12817e-06 0)
(3.70289e-05 -1.3334e-06 0)
(4.21619e-05 -5.39339e-07 0)
(4.47441e-05 2.43794e-07 0)
(4.48577e-05 1.00158e-06 0)
(4.26404e-05 1.71338e-06 0)
(3.83053e-05 2.34847e-06 0)
(3.21712e-05 2.86025e-06 0)
(2.47045e-05 3.17869e-06 0)
(1.65696e-05 3.19958e-06 0)
(8.71624e-06 2.76657e-06 0)
(2.61886e-06 1.68623e-06 0)
(1.16348e-07 1.18853e-07 0)
(1.81411e-06 -2.92845e-06 0)
(9.43635e-06 -9.4042e-06 0)
(2.31226e-05 -1.33276e-05 0)
(3.92257e-05 -1.45874e-05 0)
(5.49557e-05 -1.3807e-05 0)
(6.83264e-05 -1.15406e-05 0)
(7.78148e-05 -8.22516e-06 0)
(8.22705e-05 -4.1806e-06 0)
(8.08665e-05 3.5531e-07 0)
(7.30221e-05 5.2088e-06 0)
(5.83548e-05 1.0255e-05 0)
(3.66336e-05 1.53979e-05 0)
(7.7344e-06 2.05632e-05 0)
(-2.83588e-05 2.56983e-05 0)
(-7.16053e-05 3.07574e-05 0)
(-0.000121903 3.57084e-05 0)
(-0.000179096 4.0527e-05 0)
(-0.000243005 4.51896e-05 0)
(-0.000313414 4.96822e-05 0)
(-0.000390084 5.39908e-05 0)
(-0.000472767 5.81084e-05 0)
(-0.000561188 6.20229e-05 0)
(-0.000655068 6.57378e-05 0)
(-0.000754123 6.92398e-05 0)
(-0.000858058 7.25329e-05 0)
(-0.000966571 7.56117e-05 0)
(-0.00107937 7.84791e-05 0)
(-0.00119614 8.11318e-05 0)
(-0.00131659 8.35724e-05 0)
(-0.0014404 8.58018e-05 0)
(-0.00156729 8.78194e-05 0)
(-0.00169695 8.96288e-05 0)
(-0.00182907 9.12328e-05 0)
(-0.00196338 9.26354e-05 0)
(-0.00209957 9.38377e-05 0)
(-0.00223737 9.48421e-05 0)
(-0.00237648 9.56517e-05 0)
(-0.00251662 9.627e-05 0)
(-0.00265753 9.67e-05 0)
(-0.00279894 9.69467e-05 0)
(-0.00294057 9.70151e-05 0)
(-0.00308217 9.69074e-05 0)
(-0.00322349 9.66252e-05 0)
(-0.00336428 9.61735e-05 0)
(-0.00350429 9.55575e-05 0)
(-0.00364328 9.47808e-05 0)
(-0.00378103 9.38472e-05 0)
(-0.00391731 9.27617e-05 0)
(-0.0040519 9.15281e-05 0)
(-0.00418458 9.0149e-05 0)
(-0.00431514 8.86281e-05 0)
(-0.00444339 8.69708e-05 0)
(-0.00456912 8.51816e-05 0)
(-0.00469215 8.32644e-05 0)
(-0.00481229 8.12228e-05 0)
(-0.00492936 7.90615e-05 0)
(-0.00504318 7.67847e-05 0)
(-0.00515361 7.43963e-05 0)
(-0.00526046 7.19003e-05 0)
(-0.00536359 6.93013e-05 0)
(-0.00546285 6.66037e-05 0)
(-0.00555811 6.38122e-05 0)
(-0.00564921 6.09308e-05 0)
(-0.00573605 5.79636e-05 0)
(-0.00581848 5.49147e-05 0)
(-0.00589641 5.17885e-05 0)
(-0.00596971 4.85895e-05 0)
(-0.00603828 4.53222e-05 0)
(-0.00610203 4.19906e-05 0)
(-0.00616087 3.85989e-05 0)
(-0.0062147 3.51518e-05 0)
(-0.00626346 3.1654e-05 0)
(-0.00630708 2.811e-05 0)
(-0.00634548 2.45243e-05 0)
(-0.00637861 2.09014e-05 0)
(-0.00640643 1.72463e-05 0)
(-0.00642888 1.35634e-05 0)
(-0.00644594 9.85736e-06 0)
(-0.00645756 6.13283e-06 0)
(-0.00646373 2.39476e-06 0)
(-0.00646444 -1.3517e-06 0)
(-0.00645966 -5.10154e-06 0)
(-0.00644941 -8.85001e-06 0)
(-0.00643369 -1.25924e-05 0)
(-0.0064125 -1.63238e-05 0)
(-0.00638588 -2.00388e-05 0)
(-0.00635386 -2.3732e-05 0)
(-0.00631645 -2.73982e-05 0)
(-0.00627372 -3.10324e-05 0)
(-0.00622571 -3.46296e-05 0)
(-0.00617247 -3.81842e-05 0)
(-0.00611409 -4.16908e-05 0)
(-0.00605062 -4.51439e-05 0)
(-0.00598216 -4.85383e-05 0)
(-0.00590879 -5.18688e-05 0)
(-0.00583061 -5.51301e-05 0)
(-0.00574773 -5.83168e-05 0)
(-0.00566026 -6.14232e-05 0)
(-0.00556832 -6.44437e-05 0)
(-0.00547204 -6.73731e-05 0)
(-0.00537156 -7.02061e-05 0)
(-0.00526703 -7.29374e-05 0)
(-0.00515859 -7.55614e-05 0)
(-0.00504641 -7.80725e-05 0)
(-0.00493066 -8.04658e-05 0)
(-0.00481151 -8.27362e-05 0)
(-0.00468914 -8.48786e-05 0)
(-0.00456376 -8.68875e-05 0)
(-0.00443555 -8.87575e-05 0)
(-0.00430472 -9.04834e-05 0)
(-0.00417149 -9.20605e-05 0)
(-0.00403607 -9.3484e-05 0)
(-0.0038987 -9.47494e-05 0)
(-0.00375961 -9.5852e-05 0)
(-0.00361904 -9.67869e-05 0)
(-0.00347723 -9.75495e-05 0)
(-0.00333444 -9.81358e-05 0)
(-0.00319093 -9.8542e-05 0)
(-0.00304696 -9.87641e-05 0)
(-0.00290281 -9.8798e-05 0)
(-0.00275874 -9.86397e-05 0)
(-0.00261505 -9.82858e-05 0)
(-0.00247201 -9.77333e-05 0)
(-0.00232992 -9.69795e-05 0)
(-0.00218906 -9.6022e-05 0)
(-0.00204974 -9.48582e-05 0)
(-0.00191225 -9.34858e-05 0)
(-0.0017769 -9.19032e-05 0)
(-0.00164398 -9.01092e-05 0)
(-0.00151381 -8.81027e-05 0)
(-0.00138669 -8.5883e-05 0)
(-0.00126293 -8.34494e-05 0)
(-0.00114283 -8.08017e-05 0)
(-0.00102669 -7.79405e-05 0)
(-0.000914818 -7.48674e-05 0)
(-0.000807515 -7.1585e-05 0)
(-0.000705071 -6.80962e-05 0)
(-0.000607774 -6.44049e-05 0)
(-0.000515906 -6.0516e-05 0)
(-0.000429735 -5.64354e-05 0)
(-0.000349521 -5.21711e-05 0)
(-0.000275508 -4.77328e-05 0)
(-0.000207923 -4.31324e-05 0)
(-0.000146972 -3.83847e-05 0)
(-9.28352e-05 -3.35077e-05 0)
(-4.56602e-05 -2.85239e-05 0)
(-5.55618e-06 -2.34613e-05 0)
(2.74159e-05 -1.83553e-05 0)
(5.32544e-05 -1.32505e-05 0)
(7.20314e-05 -8.20415e-06 0)
(8.39116e-05 -3.28941e-06 0)
(8.91776e-05 1.39752e-06 0)
(8.8262e-05 5.72808e-06 0)
(8.17896e-05 9.52875e-06 0)
(7.0634e-05 1.25629e-05 0)
(5.59841e-05 1.45101e-05 0)
(3.93943e-05 1.49472e-05 0)
(2.28437e-05 1.33354e-05 0)
(9.10581e-06 9.11919e-06 0)
(1.67577e-06 2.61609e-06 0)
(2.82726e-06 -9.15839e-06 0)
(1.33717e-05 -2.31075e-05 0)
(3.09131e-05 -3.08545e-05 0)
(5.05189e-05 -3.28326e-05 0)
(6.86141e-05 -3.01252e-05 0)
(8.26551e-05 -2.38042e-05 0)
(9.0567e-05 -1.47806e-05 0)
(9.07231e-05 -3.79072e-06 0)
(8.18864e-05 8.59062e-06 0)
(6.31677e-05 2.19216e-05 0)
(3.39458e-05 3.58602e-05 0)
(-6.18535e-06 5.01374e-05 0)
(-5.74421e-05 6.45504e-05 0)
(-0.000119914 7.89353e-05 0)
(-0.000193564 9.31606e-05 0)
(-0.00027826 0.000107131 0)
(-0.000373811 0.000120761 0)
(-0.000479945 0.000133989 0)
(-0.000596349 0.000146763 0)
(-0.000722678 0.000159043 0)
(-0.000858543 0.000170795 0)
(-0.00100353 0.000182 0)
(-0.00115722 0.000192633 0)
(-0.00131916 0.000202684 0)
(-0.00148889 0.000212145 0)
(-0.00166596 0.000221003 0)
(-0.00184987 0.000229257 0)
(-0.00204016 0.000236906 0)
(-0.00223634 0.000243947 0)
(-0.00243794 0.000250383 0)
(-0.00264447 0.000256218 0)
(-0.00285546 0.000261454 0)
(-0.00307043 0.000266098 0)
(-0.0032889 0.000270159 0)
(-0.00351042 0.000273642 0)
(-0.00373451 0.000276555 0)
(-0.00396073 0.000278907 0)
(-0.00418862 0.000280706 0)
(-0.00441774 0.00028196 0)
(-0.00464766 0.000282681 0)
(-0.00487795 0.000282879 0)
(-0.00510818 0.000282565 0)
(-0.00533795 0.000281747 0)
(-0.00556686 0.000280439 0)
(-0.0057945 0.00027865 0)
(-0.0060205 0.000276393 0)
(-0.00624448 0.000273678 0)
(-0.00646607 0.000270518 0)
(-0.00668491 0.000266924 0)
(-0.00690065 0.000262907 0)
(-0.00711295 0.000258479 0)
(-0.00732149 0.000253652 0)
(-0.00752595 0.000248438 0)
(-0.007726 0.00024285 0)
(-0.00792136 0.000236899 0)
(-0.00811173 0.000230597 0)
(-0.00829683 0.000223958 0)
(-0.00847639 0.000216992 0)
(-0.00865015 0.000209713 0)
(-0.00881786 0.000202132 0)
(-0.00897927 0.000194262 0)
(-0.00913416 0.000186117 0)
(-0.0092823 0.000177708 0)
(-0.00942349 0.000169049 0)
(-0.00955753 0.000160152 0)
(-0.00968422 0.000151028 0)
(-0.00980339 0.000141692 0)
(-0.00991487 0.000132155 0)
(-0.0100185 0.00012243 0)
(-0.0101141 0.00011253 0)
(-0.0102016 0.000102469 0)
(-0.0102809 9.22605e-05 0)
(-0.0103517 8.19167e-05 0)
(-0.0104141 7.14514e-05 0)
(-0.0104679 6.08784e-05 0)
(-0.0105131 5.02115e-05 0)
(-0.0105495 3.94642e-05 0)
(-0.0105772 2.86497e-05 0)
(-0.010596 1.7782e-05 0)
(-0.010606 6.8754e-06 0)
(-0.010607 -4.05533e-06 0)
(-0.0105992 -1.49955e-05 0)
(-0.0105824 -2.59307e-05 0)
(-0.0105567 -3.68465e-05 0)
(-0.0105222 -4.77287e-05 0)
(-0.0104788 -5.85623e-05 0)
(-0.0104266 -6.93318e-05 0)
(-0.0103657 -8.00222e-05 0)
(-0.0102961 -9.06182e-05 0)
(-0.010218 -0.000101104 0)
(-0.0101314 -0.000111466 0)
(-0.0100363 -0.000121686 0)
(-0.00993307 -0.000131749 0)
(-0.00982169 -0.000141641 0)
(-0.00970233 -0.000151345 0)
(-0.00957516 -0.000160846 0)
(-0.00944036 -0.000170128 0)
(-0.0092981 -0.000179175 0)
(-0.00914858 -0.000187971 0)
(-0.00899202 -0.000196501 0)
(-0.00882864 -0.000204749 0)
(-0.00865868 -0.000212699 0)
(-0.00848238 -0.000220335 0)
(-0.00830002 -0.000227643 0)
(-0.00811185 -0.000234606 0)
(-0.00791817 -0.00024121 0)
(-0.00771928 -0.00024744 0)
(-0.00751549 -0.00025328 0)
(-0.00730712 -0.000258716 0)
(-0.00709451 -0.000263732 0)
(-0.006878 -0.000268315 0)
(-0.00665795 -0.000272451 0)
(-0.00643474 -0.000276126 0)
(-0.00620873 -0.000279327 0)
(-0.00598032 -0.00028204 0)
(-0.00574991 -0.000284254 0)
(-0.00551791 -0.000285955 0)
(-0.00528474 -0.000287133 0)
(-0.00505082 -0.000287777 0)
(-0.0048166 -0.000287874 0)
(-0.00458252 -0.000287416 0)
(-0.00434904 -0.000286391 0)
(-0.0041166 -0.000284793 0)
(-0.00388568 -0.000282612 0)
(-0.00365676 -0.000279842 0)
(-0.00343029 -0.000276477 0)
(-0.00320678 -0.000272512 0)
(-0.0029867 -0.00026794 0)
(-0.00277053 -0.000262761 0)
(-0.00255877 -0.00025697 0)
(-0.00235191 -0.000250568 0)
(-0.00215042 -0.000243554 0)
(-0.00195481 -0.00023593 0)
(-0.00176555 -0.000227698 0)
(-0.00158311 -0.000218866 0)
(-0.00140798 -0.000209441 0)
(-0.0012406 -0.000199433 0)
(-0.00108144 -0.000188858 0)
(-0.000930922 -0.00017773 0)
(-0.000789471 -0.000166071 0)
(-0.000657483 -0.000153907 0)
(-0.00053533 -0.000141269 0)
(-0.000423352 -0.000128196 0)
(-0.000321855 -0.000114734 0)
(-0.000231096 -0.00010094 0)
(-0.000151283 -8.68848e-05 0)
(-8.25552e-05 -7.26537e-05 0)
(-2.49733e-05 -5.83536e-05 0)
(2.14974e-05 -4.4117e-05 0)
(5.70095e-05 -3.01094e-05 0)
(8.18594e-05 -1.65396e-05 0)
(9.65212e-05 -3.67397e-06 0)
(0.000101687 8.14578e-06 0)
(9.83169e-05 1.84794e-05 0)
(8.76994e-05 2.67604e-05 0)
(7.15158e-05 3.22699e-05 0)
(5.18648e-05 3.41252e-05 0)
(3.12869e-05 3.13074e-05 0)
(1.33098e-05 2.28484e-05 0)
(2.75144e-06 8.69604e-06 0)
(3.18702e-06 -1.69721e-05 0)
(1.46484e-05 -3.92554e-05 0)
(3.29504e-05 -5.04717e-05 0)
(5.2263e-05 -5.21163e-05 0)
(6.85139e-05 -4.58984e-05 0)
(7.87994e-05 -3.34633e-05 0)
(8.07216e-05 -1.62472e-05 0)
(7.2333e-05 4.54649e-06 0)
(5.21357e-05 2.79499e-05 0)
(1.90009e-05 5.31851e-05 0)
(-2.78841e-05 7.96312e-05 0)
(-8.90543e-05 0.000106801 0)
(-0.00016484 0.000134297 0)
(-0.000255382 0.000161808 0)
(-0.000360667 0.000189087 0)
(-0.000480568 0.000215927 0)
(-0.000614848 0.000242166 0)
(-0.000763185 0.000267681 0)
(-0.000925197 0.000292356 0)
(-0.00110044 0.000316114 0)
(-0.00128841 0.000338886 0)
(-0.00148859 0.00036062 0)
(-0.00170043 0.00038127 0)
(-0.00192333 0.000400815 0)
(-0.0021567 0.00041922 0)
(-0.00239993 0.000436475 0)
(-0.00265237 0.000452566 0)
(-0.0029134 0.000467484 0)
(-0.00318239 0.000481228 0)
(-0.00345867 0.000493801 0)
(-0.00374162 0.000505204 0)
(-0.00403058 0.000515445 0)
(-0.00432492 0.000524534 0)
(-0.00462401 0.000532481 0)
(-0.00492721 0.0005393 0)
(-0.0052339 0.000545004 0)
(-0.00554345 0.00054961 0)
(-0.00585528 0.000553133 0)
(-0.00616876 0.00055559 0)
(-0.00648331 0.000557001 0)
(-0.00679836 0.000557385 0)
(-0.00711332 0.000556761 0)
(-0.00742764 0.00055515 0)
(-0.00774077 0.000552574 0)
(-0.00805217 0.000549053 0)
(-0.00836132 0.00054461 0)
(-0.0086677 0.000539265 0)
(-0.0089708 0.000533043 0)
(-0.00927015 0.000525966 0)
(-0.00956527 0.000518055 0)
(-0.00985568 0.000509334 0)
(-0.0101409 0.000499828 0)
(-0.0104206 0.000489558 0)
(-0.0106943 0.000478549 0)
(-0.0109615 0.000466825 0)
(-0.0112219 0.000454409 0)
(-0.0114751 0.000441325 0)
(-0.0117207 0.000427598 0)
(-0.0119584 0.000413252 0)
(-0.0121878 0.000398311 0)
(-0.0124086 0.000382801 0)
(-0.0126204 0.000366746 0)
(-0.0128231 0.00035017 0)
(-0.0130162 0.000333099 0)
(-0.0131995 0.000315558 0)
(-0.0133728 0.000297571 0)
(-0.0135358 0.000279164 0)
(-0.0136882 0.000260362 0)
(-0.0138299 0.000241189 0)
(-0.0139607 0.000221672 0)
(-0.0140803 0.000201837 0)
(-0.0141886 0.00018171 0)
(-0.0142855 0.000161317 0)
(-0.0143707 0.000140686 0)
(-0.0144443 0.000119842 0)
(-0.014506 9.88141e-05 0)
(-0.0145557 7.76276e-05 0)
(-0.0145934 5.63102e-05 0)
(-0.0146191 3.48893e-05 0)
(-0.0146326 1.33929e-05 0)
(-0.0146339 -8.15026e-06 0)
(-0.014623 -2.97115e-05 0)
(-0.0146 -5.12621e-05 0)
(-0.0145648 -7.27735e-05 0)
(-0.0145174 -9.42166e-05 0)
(-0.014458 -0.000115562 0)
(-0.0143865 -0.00013678 0)
(-0.0143031 -0.000157841 0)
(-0.0142078 -0.000178714 0)
(-0.0141008 -0.000199371 0)
(-0.0139822 -0.000219778 0)
(-0.0138522 -0.000239907 0)
(-0.0137108 -0.000259726 0)
(-0.0135584 -0.000279205 0)
(-0.0133951 -0.000298313 0)
(-0.0132211 -0.00031702 0)
(-0.0130367 -0.000335294 0)
(-0.0128421 -0.000353103 0)
(-0.0126375 -0.000370417 0)
(-0.0124234 -0.000387206 0)
(-0.0121999 -0.000403437 0)
(-0.0119675 -0.000419081 0)
(-0.0117264 -0.000434107 0)
(-0.011477 -0.000448484 0)
(-0.0112197 -0.000462182 0)
(-0.0109548 -0.000475172 0)
(-0.0106829 -0.000487425 0)
(-0.0104042 -0.00049891 0)
(-0.0101193 -0.000509598 0)
(-0.00982866 -0.000519461 0)
(-0.00953266 -0.000528471 0)
(-0.00923183 -0.000536602 0)
(-0.00892667 -0.000543827 0)
(-0.0086177 -0.000550119 0)
(-0.00830545 -0.000555453 0)
(-0.00799047 -0.000559805 0)
(-0.00767331 -0.000563152 0)
(-0.00735454 -0.000565472 0)
(-0.00703476 -0.000566742 0)
(-0.00671454 -0.000566942 0)
(-0.0063945 -0.000566051 0)
(-0.00607525 -0.000564054 0)
(-0.00575741 -0.000560932 0)
(-0.00544162 -0.000556673 0)
(-0.00512851 -0.000551261 0)
(-0.00481872 -0.000544687 0)
(-0.00451291 -0.000536938 0)
(-0.00421173 -0.00052801 0)
(-0.00391584 -0.000517896 0)
(-0.00362589 -0.000506593 0)
(-0.00334253 -0.0004941 0)
(-0.00306643 -0.00048042 0)
(-0.00279824 -0.000465557 0)
(-0.0025386 -0.000449521 0)
(-0.00228814 -0.000432326 0)
(-0.00204749 -0.00041399 0)
(-0.00181726 -0.000394536 0)
(-0.00159805 -0.000373994 0)
(-0.00139042 -0.000352401 0)
(-0.00119493 -0.0003298 0)
(-0.00101209 -0.000306246 0)
(-0.000842378 -0.000281807 0)
(-0.000686227 -0.00025656 0)
(-0.000544021 -0.000230603 0)
(-0.000416077 -0.000204052 0)
(-0.00030264 -0.000177048 0)
(-0.000203865 -0.000149765 0)
(-0.0001198 -0.000122412 0)
(-5.03654e-05 -9.52475e-05 0)
(4.67016e-06 -6.85898e-05 0)
(4.57219e-05 -4.2833e-05 0)
(7.34242e-05 -1.84683e-05 0)
(8.86735e-05 3.89039e-06 0)
(9.26768e-05 2.34767e-05 0)
(8.70078e-05 3.9339e-05 0)
(7.36649e-05 5.0313e-05 0)
(5.50826e-05 5.50158e-05 0)
(3.41569e-05 5.18926e-05 0)
(1.49389e-05 3.93971e-05 0)
(3.18684e-06 1.65309e-05 0)
(3.10194e-06 -2.48823e-05 0)
(1.38993e-05 -5.5057e-05 0)
(3.03388e-05 -6.86412e-05 0)
(4.62342e-05 -6.84002e-05 0)
(5.7212e-05 -5.68211e-05 0)
(6.01568e-05 -3.61659e-05 0)
(5.24654e-05 -8.4222e-06 0)
(3.20164e-05 2.4736e-05 0)
(-2.87054e-06 6.1919e-05 0)
(-5.34799e-05 0.000101987 0)
(-0.000120747 0.000144018 0)
(-0.000205331 0.000187257 0)
(-0.000307633 0.000231093 0)
(-0.000427843 0.000275034 0)
(-0.000565984 0.000318674 0)
(-0.000721921 0.000361688 0)
(-0.000895398 0.00040381 0)
(-0.00108606 0.000444816 0)
(-0.00129345 0.000484537 0)
(-0.00151705 0.000522826 0)
(-0.0017563 0.000559568 0)
(-0.00201055 0.000594672 0)
(-0.00227913 0.000628064 0)
(-0.00256136 0.000659689 0)
(-0.0028565 0.000689499 0)
(-0.0031638 0.000717465 0)
(-0.0034825 0.000743561 0)
(-0.00381182 0.000767772 0)
(-0.00415098 0.00079009 0)
(-0.00449918 0.000810514 0)
(-0.00485564 0.000829048 0)
(-0.00521955 0.000845702 0)
(-0.00559014 0.000860487 0)
(-0.00596661 0.000873418 0)
(-0.00634818 0.000884515 0)
(-0.00673407 0.000893798 0)
(-0.00712352 0.000901291 0)
(-0.00751577 0.000907019 0)
(-0.00791008 0.000911011 0)
(-0.0083057 0.000913295 0)
(-0.0087019 0.000913901 0)
(-0.00909798 0.000912862 0)
(-0.00949324 0.000910209 0)
(-0.00988698 0.000905978 0)
(-0.0102785 0.000900201 0)
(-0.0106673 0.000892913 0)
(-0.0110525 0.00088415 0)
(-0.0114336 0.000873949 0)
(-0.01181 0.000862346 0)
(-0.012181 0.000849378 0)
(-0.0125461 0.000835082 0)
(-0.0129048 0.000819497 0)
(-0.0132564 0.000802661 0)
(-0.0136005 0.000784612 0)
(-0.0139364 0.000765389 0)
(-0.0142638 0.000745031 0)
(-0.0145822 0.000723578 0)
(-0.0148909 0.000701069 0)
(-0.0151898 0.000677544 0)
(-0.0154781 0.000653042 0)
(-0.0157557 0.000627606 0)
(-0.016022 0.000601275 0)
(-0.0162768 0.00057409 0)
(-0.0165195 0.000546091 0)
(-0.0167499 0.00051732 0)
(-0.0169677 0.000487818 0)
(-0.0171726 0.000457625 0)
(-0.0173642 0.000426784 0)
(-0.0175423 0.000395336 0)
(-0.0177066 0.000363324 0)
(-0.0178569 0.00033079 0)
(-0.017993 0.000297778 0)
(-0.0181147 0.000264331 0)
(-0.0182218 0.000230493 0)
(-0.0183141 0.000196307 0)
(-0.0183916 0.000161819 0)
(-0.018454 0.000127073 0)
(-0.0185013 9.21128e-05 0)
(-0.0185334 5.69847e-05 0)
(-0.0185502 2.17349e-05 0)
(-0.0185518 -1.35902e-05 0)
(-0.018538 -4.89436e-05 0)
(-0.0185089 -8.42782e-05 0)
(-0.0184645 -0.000119547 0)
(-0.0184049 -0.000154702 0)
(-0.01833 -0.000189694 0)
(-0.01824 -0.000224476 0)
(-0.0181351 -0.000258998 0)
(-0.0180152 -0.000293211 0)
(-0.0178806 -0.000327066 0)
(-0.0177314 -0.000360511 0)
(-0.0175678 -0.000393498 0)
(-0.01739 -0.000425975 0)
(-0.0171983 -0.000457892 0)
(-0.016993 -0.0004892 0)
(-0.0167742 -0.000519848 0)
(-0.0165423 -0.000549784 0)
(-0.0162976 -0.000578958 0)
(-0.0160405 -0.000607319 0)
(-0.0157713 -0.000634817 0)
(-0.0154904 -0.0006614 0)
(-0.0151982 -0.00068702 0)
(-0.0148951 -0.000711625 0)
(-0.0145817 -0.000735166 0)
(-0.0142583 -0.000757594 0)
(-0.0139254 -0.000778862 0)
(-0.0135837 -0.00079892 0)
(-0.0132335 -0.000817721 0)
(-0.0128755 -0.000835217 0)
(-0.0125102 -0.000851361 0)
(-0.0121382 -0.000866111 0)
(-0.0117602 -0.000879421 0)
(-0.0113767 -0.000891248 0)
(-0.0109884 -0.00090155 0)
(-0.0105961 -0.000910286 0)
(-0.0102002 -0.000917417 0)
(-0.00980166 -0.000922906 0)
(-0.00940106 -0.000926717 0)
(-0.00899916 -0.000928815 0)
(-0.0085967 -0.000929166 0)
(-0.00819443 -0.00092774 0)
(-0.00779312 -0.00092451 0)
(-0.00739354 -0.000919449 0)
(-0.00699648 -0.000912536 0)
(-0.00660273 -0.000903747 0)
(-0.0062131 -0.000893067 0)
(-0.00582839 -0.000880481 0)
(-0.00544941 -0.000865978 0)
(-0.00507697 -0.000849551 0)
(-0.00471189 -0.000831198 0)
(-0.00435497 -0.00081092 0)
(-0.00400703 -0.000788722 0)
(-0.00366887 -0.000764616 0)
(-0.00334127 -0.00073862 0)
(-0.00302502 -0.00071076 0)
(-0.00272088 -0.00068107 0)
(-0.00242959 -0.00064959 0)
(-0.00215187 -0.000616372 0)
(-0.00188843 -0.000581482 0)
(-0.00163991 -0.000544996 0)
(-0.00140693 -0.000507009 0)
(-0.00119006 -0.000467635 0)
(-0.000989814 -0.000427007 0)
(-0.000806634 -0.000385288 0)
(-0.000640884 -0.000342673 0)
(-0.000492835 -0.000299396 0)
(-0.000362649 -0.000255739 0)
(-0.000250358 -0.000212044 0)
(-0.00015584 -0.000168722 0)
(-7.87968e-05 -0.000126277 0)
(-1.87168e-05 -8.5319e-05 0)
(2.51566e-05 -4.65984e-05 0)
(5.38679e-05 -1.10308e-05 0)
(6.87934e-05 2.0266e-05 0)
(7.16917e-05 4.59372e-05 0)
(6.47568e-05 6.43607e-05 0)
(5.06301e-05 7.36363e-05 0)
(3.24415e-05 7.16183e-05 0)
(1.45545e-05 5.60325e-05 0)
(3.17499e-06 2.4664e-05 0)
(2.73258e-06 -3.19676e-05 0)
(1.16927e-05 -6.85695e-05 0)
(2.41886e-05 -8.28526e-05 0)
(3.41018e-05 -7.88359e-05 0)
(3.70071e-05 -5.98238e-05 0)
(2.96654e-05 -2.87411e-05 0)
(9.38144e-06 1.18792e-05 0)
(-2.60665e-05 5.98767e-05 0)
(-7.84515e-05 0.000113438 0)
(-0.000149143 0.000171059 0)
(-0.000239175 0.000231485 0)
(-0.000349265 0.000293686 0)
(-0.000479873 0.000356815 0)
(-0.000631236 0.000420167 0)
(-0.000803383 0.000483171 0)
(-0.000996185 0.000545351 0)
(-0.00120938 0.000606314 0)
(-0.00144255 0.00066574 0)
(-0.00169523 0.000723367 0)
(-0.00196681 0.000778974 0)
(-0.00225666 0.00083239 0)
(-0.00256405 0.00088347 0)
(-0.00288823 0.000932104 0)
(-0.00322839 0.000978194 0)
(-0.00358368 0.00102168 0)
(-0.00395325 0.00106249 0)
(-0.0043362 0.0011006 0)
(-0.00473164 0.00113598 0)
(-0.00513864 0.0011686 0)
(-0.00555629 0.00119847 0)
(-0.00598364 0.00122559 0)
(-0.00641978 0.00124996 0)
(-0.00686378 0.0012716 0)
(-0.0073147 0.00129053 0)
(-0.00777162 0.00130678 0)
(-0.00823364 0.00132037 0)
(-0.00869983 0.00133133 0)
(-0.00916931 0.0013397 0)
(-0.00964118 0.00134553 0)
(-0.0101146 0.00134884 0)
(-0.0105886 0.00134969 0)
(-0.0110625 0.00134811 0)
(-0.0115354 0.00134416 0)
(-0.0120064 0.00133789 0)
(-0.0124748 0.00132934 0)
(-0.0129397 0.00131856 0)
(-0.0134005 0.00130561 0)
(-0.0138563 0.00129054 0)
(-0.0143065 0.0012734 0)
(-0.0147503 0.00125424 0)
(-0.015187 0.00123313 0)
(-0.0156159 0.00121011 0)
(-0.0160364 0.00118525 0)
(-0.0164479 0.00115859 0)
(-0.0168497 0.0011302 0)
(-0.0172412 0.00110013 0)
(-0.0176219 0.00106845 0)
(-0.0179911 0.00103521 0)
(-0.0183485 0.00100046 0)
(-0.0186933 0.000964271 0)
(-0.0190252 0.0009267 0)
(-0.0193437 0.000887807 0)
(-0.0196482 0.000847651 0)
(-0.0199385 0.000806294 0)
(-0.020214 0.000763795 0)
(-0.0204744 0.000720215 0)
(-0.0207193 0.000675615 0)
(-0.0209483 0.000630057 0)
(-0.0211612 0.000583603 0)
(-0.0213576 0.000536317 0)
(-0.0215373 0.00048826 0)
(-0.0217 0.000439497 0)
(-0.0218454 0.000390093 0)
(-0.0219733 0.000340112 0)
(-0.0220836 0.000289619 0)
(-0.0221761 0.000238681 0)
(-0.0222506 0.000187362 0)
(-0.0223071 0.000135729 0)
(-0.0223453 8.38502e-05 0)
(-0.0223653 3.17936e-05 0)
(-0.022367 -2.0372e-05 0)
(-0.0223504 -7.25772e-05 0)
(-0.0223155 -0.000124753 0)
(-0.0222623 -0.000176828 0)
(-0.0221908 -0.000228733 0)
(-0.0221012 -0.000280396 0)
(-0.0219935 -0.000331746 0)
(-0.0218678 -0.000382709 0)
(-0.0217243 -0.000433214 0)
(-0.0215633 -0.000483186 0)
(-0.0213848 -0.000532553 0)
(-0.0211891 -0.000581239 0)
(-0.0209764 -0.000629171 0)
(-0.0207472 -0.000676274 0)
(-0.0205015 -0.000722476 0)
(-0.0202399 -0.0007677 0)
(-0.0199625 -0.000811872 0)
(-0.0196699 -0.000854917 0)
(-0.0193625 -0.00089676 0)
(-0.0190406 -0.000937327 0)
(-0.0187047 -0.000976544 0)
(-0.0183554 -0.00101434 0)
(-0.017993 -0.00105063 0)
(-0.0176183 -0.00108535 0)
(-0.0172316 -0.00111844 0)
(-0.0168337 -0.0011498 0)
(-0.0164251 -0.00117939 0)
(-0.0160065 -0.00120711 0)
(-0.0155785 -0.00123292 0)
(-0.0151419 -0.00125673 0)
(-0.0146972 -0.00127849 0)
(-0.0142453 -0.00129812 0)
(-0.0137869 -0.00131557 0)
(-0.0133227 -0.00133077 0)
(-0.0128536 -0.00134367 0)
(-0.0123804 -0.00135421 0)
(-0.0119039 -0.00136233 0)
(-0.0114249 -0.00136799 0)
(-0.0109444 -0.00137112 0)
(-0.0104631 -0.00137169 0)
(-0.00998205 -0.00136965 0)
(-0.00950207 -0.00136496 0)
(-0.0090241 -0.00135759 0)
(-0.00854908 -0.00134749 0)
(-0.00807793 -0.00133465 0)
(-0.00761161 -0.00131904 0)
(-0.00715108 -0.00130064 0)
(-0.00669728 -0.00127944 0)
(-0.00625117 -0.00125543 0)
(-0.00581371 -0.0012286 0)
(-0.00538586 -0.00119897 0)
(-0.00496855 -0.00116654 0)
(-0.00456273 -0.00113133 0)
(-0.00416932 -0.00109338 0)
(-0.00378924 -0.00105273 0)
(-0.00342336 -0.00100943 0)
(-0.00307255 -0.000963551 0)
(-0.00273766 -0.000915165 0)
(-0.00241947 -0.000864378 0)
(-0.00211874 -0.000811309 0)
(-0.00183617 -0.000756103 0)
(-0.00157242 -0.000698931 0)
(-0.00132806 -0.000639996 0)
(-0.00110358 -0.000579543 0)
(-0.00089938 -0.000517859 0)
(-0.000715764 -0.00045529 0)
(-0.000552893 -0.000392248 0)
(-0.000410784 -0.000329225 0)
(-0.000289284 -0.000266811 0)
(-0.000188043 -0.000205713 0)
(-0.000106483 -0.000146783 0)
(-4.37601e-05 -9.1047e-05 0)
(1.26543e-06 -3.97379e-05 0)
(3.00753e-05 5.66485e-06 0)
(4.45365e-05 4.33974e-05 0)
(4.6951e-05 7.13754e-05 0)
(4.00734e-05 8.71688e-05 0)
(2.71668e-05 8.80067e-05 0)
(1.26985e-05 7.08207e-05 0)
(2.87277e-06 3.2166e-05 0)
(2.18882e-06 -3.76022e-05 0)
(8.46909e-06 -7.83001e-05 0)
(1.53981e-05 -9.10843e-05 0)
(1.73007e-05 -8.10684e-05 0)
(9.86004e-06 -5.23645e-05 0)
(-1.01722e-05 -8.54083e-06 0)
(-4.55109e-05 4.73138e-05 0)
(-9.84015e-05 0.00011257 0)
(-0.000170639 0.000184996 0)
(-0.000263646 0.000262708 0)
(-0.000378484 0.000344132 0)
(-0.000515913 0.000427948 0)
(-0.000676428 0.000513051 0)
(-0.000860274 0.000598527 0)
(-0.0010675 0.00068361 0)
(-0.00129797 0.00076766 0)
(-0.00155139 0.00085015 0)
(-0.00182734 0.000930641 0)
(-0.00212529 0.00100877 0)
(-0.00244458 0.00108422 0)
(-0.00278452 0.00115677 0)
(-0.0031443 0.0012262 0)
(-0.00352309 0.00129235 0)
(-0.00391998 0.00135509 0)
(-0.00433404 0.00141431 0)
(-0.0047643 0.00146993 0)
(-0.00520975 0.0015219 0)
(-0.00566938 0.00157015 0)
(-0.00614216 0.00161468 0)
(-0.00662704 0.00165546 0)
(-0.00712296 0.00169249 0)
(-0.00762888 0.00172577 0)
(-0.00814372 0.00175534 0)
(-0.00866644 0.0017812 0)
(-0.00919599 0.00180338 0)
(-0.00973131 0.00182194 0)
(-0.0102714 0.00183689 0)
(-0.0108151 0.0018483 0)
(-0.0113616 0.00185621 0)
(-0.0119098 0.00186068 0)
(-0.0124587 0.00186176 0)
(-0.0130073 0.00185952 0)
(-0.0135546 0.00185401 0)
(-0.0140998 0.00184531 0)
(-0.014642 0.00183348 0)
(-0.0151801 0.00181858 0)
(-0.0157134 0.00180069 0)
(-0.0162409 0.00177987 0)
(-0.0167618 0.00175621 0)
(-0.0172754 0.00172978 0)
(-0.0177807 0.00170064 0)
(-0.018277 0.00166889 0)
(-0.0187636 0.00163458 0)
(-0.0192397 0.00159781 0)
(-0.0197046 0.00155864 0)
(-0.0201575 0.00151717 0)
(-0.020598 0.00147346 0)
(-0.0210252 0.0014276 0)
(-0.0214386 0.00137967 0)
(-0.0218375 0.00132975 0)
(-0.0222215 0.00127792 0)
(-0.0225899 0.00122426 0)
(-0.0229422 0.00116887 0)
(-0.023278 0.00111181 0)
(-0.0235967 0.00105318 0)
(-0.0238979 0.000993064 0)
(-0.0241811 0.000931536 0)
(-0.024446 0.000868688 0)
(-0.0246922 0.000804604 0)
(-0.0249194 0.000739372 0)
(-0.0251271 0.000673079 0)
(-0.0253152 0.000605813 0)
(-0.0254833 0.000537663 0)
(-0.0256312 0.000468719 0)
(-0.0257586 0.000399071 0)
(-0.0258655 0.000328809 0)
(-0.0259516 0.000258024 0)
(-0.0260167 0.00018681 0)
(-0.0260609 0.000115258 0)
(-0.0260839 4.34637e-05 0)
(-0.0260857 -2.84783e-05 0)
(-0.0260664 -0.000100472 0)
(-0.0260258 -0.000172423 0)
(-0.0259641 -0.000244232 0)
(-0.0258813 -0.000315804 0)
(-0.0257774 -0.000387038 0)
(-0.0256527 -0.000457837 0)