/*--------------------------------*- C++ -*----------------------------------*\
  =========                 |
  \\      /  F ield         | OpenFOAM: The Open Source CFD Toolbox
   \\    /   O peration     | Website:  https://openfoam.org
    \\  /    A nd           | Version:  7
     \\/     M anipulation  |
\*---------------------------------------------------------------------------*/
FoamFile
{
    version     2.0;
    format      ascii;
    class       volScalarField;
    location    "0.325";
    object      p;
}
// * * * * * * * * * * * * * * * * * * * * * * * * * * * * * * * * * * * * * //

dimensions      [0 2 -2 0 0 0 0];

internalField   nonuniform List<scalar> 
25600
(
5.05891e-06
0.000120441
0.000149363
4.09286e-05
-0.000212571
-0.0006072
-0.00113186
-0.00177202
-0.0025122
-0.00333721
-0.00423258
-0.00518472
-0.00618099
-0.00720974
-0.00826026
-0.00932269
-0.010388
-0.011448
-0.012495
-0.0135222
-0.0145232
-0.0154922
-0.016424
-0.0173138
-0.0181571
-0.0189501
-0.0196892
-0.0203712
-0.0209931
-0.0215525
-0.022047
-0.0224746
-0.0228335
-0.0231223
-0.0233396
-0.0234844
-0.0235558
-0.0235533
-0.0234763
-0.0233246
-0.0230981
-0.0227968
-0.0224208
-0.0219706
-0.0214465
-0.0208492
-0.0201794
-0.0194379
-0.0186256
-0.0177435
-0.0167929
-0.0157749
-0.0146909
-0.0135424
-0.0123309
-0.0110579
-0.00972519
-0.00833444
-0.0068875
-0.00538627
-0.00383272
-0.00222886
-0.000576801
0.00112131
0.00286328
0.00464684
0.00646969
0.00832948
0.0102238
0.0121502
0.0141062
0.0160893
0.0180969
0.0201264
0.0221752
0.0242407
0.0263201
0.0284108
0.03051
0.032615
0.034723
0.0368311
0.0389367
0.0410369
0.0431289
0.0452098
0.0472769
0.0493273
0.0513584
0.0533672
0.055351
0.0573071
0.0592328
0.0611252
0.0629819
0.0648
0.0665771
0.0683105
0.0699979
0.0716366
0.0732244
0.0747589
0.0762378
0.0776589
0.0790202
0.0803196
0.0815551
0.0827249
0.0838272
0.0848605
0.085823
0.0867136
0.0875307
0.0882734
0.0889405
0.0895312
0.0900447
0.0904804
0.090838
0.0911172
0.0913178
0.09144
0.0914841
0.0914505
0.09134
0.0911535
0.090892
0.0905571
0.0901502
0.0896733
0.0891285
0.0885182
0.0878452
0.0871124
0.0863231
0.0854811
0.0845903
0.0836552
0.0826806
0.0816717
0.0806341
0.0795742
0.0784985
0.0774142
0.0763293
0.0752521
0.0741919
0.0731585
0.0721626
0.0712157
0.0703301
0.0695191
0.0687966
0.0681771
0.0676749
0.0673032
0.0670713
0.066981
0.0670215
0.0671371
-0.000102839
8.99589e-06
1.31027e-05
-0.000107894
-0.000350187
-0.000711943
-0.00118648
-0.00176334
-0.00243062
-0.00317602
-0.0039873
-0.00485263
-0.00576079
-0.00670121
-0.00766404
-0.00864013
-0.009621
-0.0105988
-0.0115664
-0.0125171
-0.0134448
-0.0143439
-0.0152092
-0.016036
-0.0168201
-0.0175575
-0.0182448
-0.0188788
-0.0194565
-0.0199754
-0.0204332
-0.0208278
-0.0211574
-0.0214206
-0.0216159
-0.0217423
-0.0217989
-0.021785
-0.0217
-0.0215437
-0.0213159
-0.0210164
-0.0206456
-0.0202035
-0.0196906
-0.0191075
-0.0184547
-0.0177331
-0.0169434
-0.0160866
-0.0151638
-0.0141762
-0.0131251
-0.0120118
-0.0108377
-0.00960442
-0.00831351
-0.00696665
-0.00556559
-0.00411213
-0.00260818
-0.00105567
0.000543373
0.00218688
0.00387274
0.00559876
0.00736272
0.00916235
0.0109953
0.0128593
0.0147518
0.0166705
0.0186129
0.0205764
0.0225585
0.0245567
0.0265684
0.0285909
0.0306216
0.0326578
0.0346968
0.036736
0.0387727
0.040804
0.0428274
0.04484
0.0468392
0.0488223
0.0507866
0.0527293
0.0546478
0.0565395
0.0584018
0.0602319
0.0620274
0.0637857
0.0655043
0.0671808
0.0688127
0.0703978
0.0719336
0.0734181
0.0748489
0.0762241
0.0775415
0.0787993
0.0799957
0.0811287
0.0821969
0.0831986
0.0841324
0.084997
0.085791
0.0865136
0.0871637
0.0877405
0.0882434
0.0886719
0.0890255
0.0893041
0.0895077
0.0896365
0.0896907
0.0896709
0.0895778
0.0894125
0.089176
0.0888699
0.0884956
0.0880551
0.0875506
0.0869843
0.0863592
0.085678
0.0849441
0.0841611
0.083333
0.082464
0.0815589
0.0806228
0.0796611
0.0786798
0.0776854
0.0766847
0.0756852
0.0746949
0.0737223
0.0727767
0.0718677
0.0710059
0.0702021
0.0694677
0.0688146
0.0682542
0.0677978
0.0674544
0.0672293
0.0671227
0.0671366
0.0672522
-0.000131272
5.01082e-06
9.23682e-06
-0.000113073
-0.000345408
-0.000684641
-0.00112524
-0.00165846
-0.00227431
-0.0029623
-0.00371182
-0.0045124
-0.00535394
-0.00622679
-0.00712188
-0.00803068
-0.00894526
-0.0098582
-0.0107627
-0.0116523
-0.0125211
-0.0133638
-0.0141753
-0.014951
-0.0156869
-0.016379
-0.0170239
-0.0176184
-0.0181598
-0.0186454
-0.0190728
-0.0194402
-0.0197456
-0.0199874
-0.0201645
-0.0202756
-0.0203198
-0.0202963
-0.0202047
-0.0200445
-0.0198155
-0.0195177
-0.019151
-0.0187158
-0.0182123
-0.017641
-0.0170025
-0.0162975
-0.0155267
-0.0146911
-0.0137917
-0.0128297
-0.0118061
-0.0107224
-0.00957988
-0.00838001
-0.00712432
-0.00581442
-0.004452
-0.0030388
-0.00157665
-6.74316e-05
0.00148691
0.00308438
0.00472291
0.0064004
0.00811469
0.00986357
0.0116448
0.0134561
0.0152951
0.0171595
0.0190468
0.0209546
0.0228805
0.024822
0.0267765
0.0287414
0.0307143
0.0326926
0.0346735
0.0366546
0.0386331
0.0406065
0.042572
0.0445272
0.0464692
0.0483956
0.0503036
0.0521907
0.0540543
0.0558919
0.0577008
0.0594785
0.0612227
0.0629307
0.0646002
0.0662288
0.0678142
0.0693542
0.0708465
0.072289
0.0736795
0.0750161
0.0762969
0.0775199
0.0786835
0.0797858
0.0808254
0.0818008
0.0827105
0.0835534
0.0843282
0.085034
0.08567
0.0862352
0.0867293
0.0871516
0.087502
0.0877801
0.0879862
0.0881203
0.0881829
0.0881745
0.0880959
0.0879481
0.0877322
0.0874498
0.0871023
0.0866918
0.0862203
0.0856902
0.0851041
0.0844651
0.0837763
0.0830413
0.082264
0.0814485
0.0805995
0.0797219
0.0788209
0.0779024
0.0769724
0.0760376
0.0751051
0.0741824
0.0732776
0.072399
0.0715559
0.0707575
0.0700139
0.0693349
0.0687308
0.0682115
0.0677863
0.0674628
0.0672456
0.0671363
0.0671503
0.0672925
-2.35748e-05
0.000126065
0.000131769
9.50071e-06
-0.000216865
-0.000542258
-0.000960955
-0.00146475
-0.00204467
-0.00269131
-0.0033952
-0.00414691
-0.00493725
-0.00575741
-0.00659899
-0.00745408
-0.0083152
-0.0091754
-0.0100282
-0.0108674
-0.0116874
-0.0124831
-0.0132496
-0.0139824
-0.0146775
-0.0153312
-0.0159401
-0.0165011
-0.0170114
-0.0174684
-0.0178699
-0.0182137
-0.0184982
-0.0187218
-0.018883
-0.0189808
-0.0190143
-0.0189826
-0.0188852
-0.0187216
-0.0184916
-0.0181952
-0.0178322
-0.017403
-0.0169077
-0.0163468
-0.0157209
-0.0150305
-0.0142764
-0.0134595
-0.0125807
-0.0116411
-0.0106419
-0.00958424
-0.00846952
-0.00729913
-0.00607452
-0.00479726
-0.00346896
-0.00209132
-0.000666101
0.000804868
0.0023197
0.00387647
0.00547316
0.00710774
0.00877811
0.0104821
0.0122176
0.0139823
0.015774
0.0175903
0.0194289
0.0212875
0.0231637
0.025055
0.0269589
0.0288731
0.0307949
0.0327219
0.0346515
0.0365812
0.0385084
0.0404306
0.0423451
0.0442495
0.0461411
0.0480174
0.0498759
0.0517139
0.0535291
0.0553189
0.0570809
0.0588125
0.0605114
0.0621751
0.0638014
0.065388
0.0669325
0.0684329
0.0698869
0.0712925
0.0726477
0.0739505
0.0751991
0.0763916
0.0775264
0.0786019
0.0796164
0.0805687
0.0814574
0.0822813
0.0830393
0.0837305
0.084354
0.0849092
0.0853955
0.0858125
0.0861599
0.0864377
0.0866458
0.0867845
0.0868543
0.0868557
0.0867895
0.0866567
0.0864585
0.0861964
0.0858719
0.0854869
0.0850435
0.0845441
0.0839914
0.083388
0.0827374
0.0820429
0.0813082
0.0805375
0.0797353
0.0789062
0.0780554
0.0771885
0.0763112
0.0754299
0.0745513
0.0736826
0.0728311
0.072005
0.0712124
0.0704621
0.0697629
0.069124
0.0685545
0.0680631
0.0676583
0.0673475
0.0671356
0.0670266
0.0670438
0.0672027
0.000228978
0.000368127
0.000364304
0.000236213
9.81198e-06
-0.000308588
-0.000713007
-0.00119563
-0.00174816
-0.00236213
-0.00302895
-0.0037401
-0.00448724
-0.00526229
-0.00605752
-0.00686558
-0.00767953
-0.0084928
-0.00929923
-0.0100931
-0.0108689
-0.0116218
-0.0123471
-0.0130406
-0.0136982
-0.0143165
-0.014892
-0.0154219
-0.0159033
-0.0163337
-0.0167108
-0.0170328
-0.0172977
-0.017504
-0.0176504
-0.0177358
-0.0177591
-0.0177197
-0.0176168
-0.0174501
-0.0172193
-0.0169242
-0.0165649
-0.0161414
-0.0156541
-0.0151032
-0.0144893
-0.0138129
-0.0130748
-0.0122758
-0.0114168
-0.0104988
-0.00952292
-0.00849036
-0.00740238
-0.00626031
-0.00506559
-0.0038197
-0.00252422
-0.00118078
0.000208902
0.00164307
0.00311989
0.00463748
0.0061939
0.00778718
0.00941527
0.0110761
0.0127675
0.0144874
0.0162335
0.0180035
0.0197953
0.0216065
0.0234348
0.0252778
0.0271332
0.0289984
0.0308711
0.0327488
0.034629
0.0365093
0.0383872
0.0402601
0.0421256
0.0439812
0.0458244
0.0476526
0.0494634
0.0512545
0.0530232
0.0547672
0.056484
0.0581714
0.0598269
0.0614482
0.0630331
0.0645793
0.0660847
0.0675472
0.0689646
0.0703349
0.0716562
0.0729267
0.0741445
0.0753079
0.0764152
0.077465
0.0784557
0.0793859
0.0802545
0.0810603
0.0818022
0.0824794
0.0830911
0.0836367
0.0841155
0.0845274
0.0848719
0.0851492
0.0853592
0.0855022
0.0855786
0.0855891
0.0855345
0.0854157
0.085234
0.0849908
0.0846876
0.0843264
0.0839092
0.0834383
0.0829163
0.082346
0.0817305
0.0810731
0.0803776
0.0796479
0.0788882
0.0781032
0.0772978
0.0764771
0.075647
0.0748132
0.0739822
0.0731607
0.0723555
0.0715742
0.0708244
0.0701139
0.0694511
0.068844
0.0683009
0.0678299
0.0674386
0.0671344
0.0669227
0.0668088
0.0668189
0.0669719
0.000622432
0.000729789
0.000704024
0.000562213
0.000328538
9.80201e-06
-0.000387915
-0.000857199
-0.00139039
-0.00197977
-0.00261756
-0.00329603
-0.00400757
-0.0047448
-0.00550062
-0.00626824
-0.00704118
-0.00781332
-0.00857886
-0.00933235
-0.0100687
-0.0107831
-0.0114713
-0.012129
-0.0127526
-0.0133385
-0.0138835
-0.0143848
-0.0148396
-0.0152454
-0.0156001
-0.0159017
-0.0161485
-0.0163389
-0.0164715
-0.0165453
-0.0165593
-0.0165127
-0.0164048
-0.0162353
-0.0160038
-0.0157101
-0.0153543
-0.0149364
-0.0144566
-0.0139153
-0.0133129
-0.0126499
-0.0119271
-0.0111452
-0.0103051
-0.00940775
-0.00845419
-0.00744559
-0.00638314
-0.00526815
-0.00410198
-0.00288609
-0.00162199
-0.000311262
0.00104444
0.0024434
0.00388386
0.00536398
0.00688188
0.00843565
0.0100233
0.0116428
0.0132921
0.014969
0.0166715
0.0183973
0.0201443
0.0219102
0.0236927
0.0254895
0.0272983
0.0291168
0.0309425
0.0327731
0.0346061
0.0364392
0.0382699
0.0400958
0.0419145
0.0437235
0.0455204
0.0473027
0.0490681
0.0508142
0.0525386
0.0542389
0.0559128
0.0575579
0.0591721
0.060753
0.0622985
0.0638063
0.0652744
0.0667008
0.0680833
0.0694201
0.0707093
0.071949
0.0731375
0.0742732
0.0753545
0.0763798
0.0773478
0.0782571
0.0791067
0.0798952
0.0806219
0.0812858
0.0818863
0.0824226
0.0828944
0.0833012
0.083643
0.0839196
0.0841312
0.0842781
0.0843607
0.0843796
0.0843356
0.0842297
0.0840632
0.0838374
0.083554
0.0832146
0.0828214
0.0823766
0.0818828
0.0813426
0.0807591
0.0801356
0.0794755
0.0787828
0.0780614
0.0773159
0.0765509
0.0757714
0.0749828
0.0741906
0.0734009
0.0726199
0.0718541
0.0711104
0.0703958
0.0697176
0.0690832
0.0685002
0.067976
0.067518
0.0671334
0.0668291
0.0666108
0.0664847
0.0664758
0.0666019
0.00114635
0.00120498
0.0011459
0.000982158
0.000733647
0.000407131
8.63624e-06
-0.000454917
-0.000976498
-0.00154907
-0.00216556
-0.00281894
-0.00350228
-0.00420885
-0.00493213
-0.00566584
-0.00640399
-0.00714085
-0.00787099
-0.00858929
-0.00929093
-0.00997142
-0.0106266
-0.0112525
-0.0118455
-0.0124023
-0.0129198
-0.0133952
-0.0138259
-0.0142094
-0.0145437
-0.0148268
-0.0150569
-0.0152327
-0.0153528
-0.015416
-0.0154215
-0.0153683
-0.015256
-0.0150839
-0.0148519
-0.0145597
-0.0142073
-0.0137948
-0.0133222
-0.01279
-0.0121985
-0.0115483
-0.01084
-0.0100743
-0.00925213
-0.00837432
-0.00744192
-0.00645602
-0.00541779
-0.00432847
-0.00318939
-0.00200195
-0.000767615
0.000512084
0.00183555
0.00320111
0.00460706
0.00605162
0.00753297
0.00904924
0.0105985
0.0121788
0.013788
0.0154243
0.0170854
0.0187692
0.0204737
0.0221965
0.0239356
0.0256886
0.0274533
0.0292274
0.0310086
0.0327945
0.0345828
0.0363711
0.0381572
0.0399385
0.0417128
0.0434777
0.0452307
0.0469696
0.048692
0.0503956
0.052078
0.053737
0.0553703
0.0569756
0.0585507
0.0600934
0.0616016
0.0630732
0.0645061
0.0658984
0.0672481
0.0685532
0.069812
0.0710228
0.0721838
0.0732934
0.07435
0.0753524
0.076299
0.0771886
0.0780202
0.0787926
0.0795049
0.0801562
0.080746
0.0812736
0.0817386
0.0821407
0.0824798
0.0827557
0.0829686
0.0831189
0.083207
0.0832334
0.0831991
0.083105
0.0829523
0.0827423
0.0824767
0.0821572
0.0817857
0.0813646
0.0808961
0.0803831
0.0798283
0.079235
0.0786066
0.0779467
0.0772592
0.0765485
0.0758188
0.0750751
0.0743223
0.0735658
0.0728111
0.072064
0.0713307
0.0706175
0.0699309
0.0692775
0.0686642
0.0680977
0.067585
0.0671327
0.0667477
0.0664365
0.0662046
0.0660584
0.0660193
0.0661015
0.00178695
0.0017839
0.00168174
0.00148833
0.00121775
0.000876429
0.0004702
5.38029e-06
-0.000511638
-0.00107445
-0.00167665
-0.00231184
-0.00297375
-0.00365622
-0.00435327
-0.00505913
-0.00576824
-0.00647528
-0.00717519
-0.00786315
-0.00853465
-0.00918545
-0.00981156
-0.0104093
-0.0109752
-0.0115061
-0.011999
-0.0124511
-0.0128601
-0.0132234
-0.0135392
-0.0138055
-0.0140206
-0.0141832
-0.0142918
-0.0143455
-0.0143432
-0.0142841
-0.0141678
-0.0139936
-0.0137613
-0.0134707
-0.0131216
-0.0127142
-0.0122486
-0.0117251
-0.011144
-0.0105059
-0.00981137
-0.00906109
-0.00825587
-0.0073966
-0.00648425
-0.00551987
-0.00450459
-0.00343961
-0.0023262
-0.00116572
4.04022e-05
0.00129069
0.00258359
0.00391749
0.00529072
0.00670158
0.00814827
0.00962898
0.0111418
0.0126849
0.0142563
0.0158539
0.0174758
0.0191198
0.0207839
0.022466
0.0241639
0.0258754
0.0275983
0.0293304
0.0310693
0.0328129
0.0345589
0.0363049
0.0380486
0.0397878
0.0415201
0.0432432
0.0449548
0.0466526
0.0483344
0.0499978
0.0516406
0.0532605
0.0548554
0.0564231
0.0579613
0.059468
0.0609411
0.0623785
0.0637782
0.0651384
0.066457
0.0677324
0.0689627
0.0701461
0.0712811
0.0723661
0.0733997
0.0743804
0.0753069
0.076178
0.0769926
0.0777498
0.0784485
0.079088
0.0796678
0.0801871
0.0806457
0.0810432
0.0813795
0.0816546
0.0818686
0.0820218
0.0821147
0.082148
0.0821224
0.0820388
0.0818986
0.0817029
0.0814533
0.0811516
0.0807997
0.0803998
0.0799541
0.0794652
0.0789361
0.0783696
0.0777691
0.0771381
0.0764804
0.0757999
0.0751009
0.0743879
0.0736657
0.0729391
0.0722136
0.0714944
0.0707873
0.0700981
0.0694327
0.0687974
0.0681982
0.0676415
0.0671334
0.0666803
0.0662882
0.0659633
0.0657109
0.0655373
0.0654583
0.0654836
0.00252965
0.00245532
0.00230216
0.00207227
0.00177309
0.00141058
0.000990274
0.000517838
-9.85765e-07
-0.000560413
-0.00115465
-0.00177793
-0.00242455
-0.0030889
-0.00376553
-0.00444911
-0.00513451
-0.00581681
-0.00649128
-0.00715346
-0.0077991
-0.00842421
-0.00902506
-0.00959814
-0.0101402
-0.0106481
-0.0111191
-0.0115506
-0.0119401
-0.0122854
-0.0125845
-0.0128357
-0.0130373
-0.0131879
-0.0132863
-0.0133313
-0.0133221
-0.0132579
-0.013138
-0.0129621
-0.0127297
-0.0124407
-0.012095
-0.0116926
-0.0112337
-0.0107184
-0.0101473
-0.00952067
-0.00883919
-0.00810351
-0.0073144
-0.0064727
-0.00557935
-0.00463536
-0.00364181
-0.00259988
-0.00151079
-0.000375852
0.000803548
0.00202597
0.00328992
0.00459383
0.00593608
0.00731499
0.00872885
0.0101759
0.0116542
0.0131621
0.0146975
0.0162586
0.0178433
0.0194496
0.0210756
0.0227191
0.024378
0.0260502
0.0277335
0.0294258
0.0311248
0.0328284
0.0345343
0.0362402
0.0379439
0.0396433
0.0413359
0.0430195
0.044692
0.046351
0.0479943
0.0496198
0.0512252
0.0528083
0.054367
0.0558991
0.0574026
0.0588753
0.0603153
0.0617205
0.063089
0.0644189
0.0657084
0.0669557
0.0681591
0.0693169
0.0704275
0.0714894
0.0725012
0.0734616
0.0743692
0.0752229
0.0760216
0.0767643
0.0774503
0.0780787
0.0786489
0.0791604
0.0796128
0.0800059
0.0803394
0.0806136
0.0808283
0.0809841
0.0810813
0.0811206
0.0811027
0.0810286
0.0808994
0.0807165
0.0804814
0.0801956
0.0798611
0.07948
0.0790545
0.0785872
0.0780806
0.0775377
0.0769617
0.0763559
0.0757239
0.0750695
0.0743966
0.0737096
0.073013
0.0723113
0.0716094
0.0709125
0.0702258
0.0695546
0.0689044
0.0682809
0.0676898
0.0671366
0.0666271
0.0661669
0.0657616
0.0654168
0.0651376
0.0649298
0.0648031
0.0647616
0.00336022
0.00320771
0.00299738
0.00272531
0.00239186
0.00200248
0.00156242
0.00107666
0.000550284
-1.15199e-05
-0.000603555
-0.00122062
-0.00185757
-0.00250929
-0.00317082
-0.00383726
-0.00450389
-0.00516617
-0.00581972
-0.00646038
-0.00708419
-0.00768742
-0.00826657
-0.00881831
-0.00933957
-0.00982743
-0.0102792
-0.0106924
-0.0110647
-0.011394
-0.0116783
-0.0119161
-0.0121056
-0.0122456
-0.0123348
-0.0123722
-0.0123568
-0.012288
-0.0121652
-0.0119878
-0.0117556
-0.0114683
-0.0111259
-0.0107284
-0.0102759
-0.0097686
-0.0092069
-0.00859123
-0.00792216
-0.00720033
-0.00642648
-0.00560142
-0.00472606
-0.00380136
-0.00282838
-0.00180825
-0.000742157
0.000368616
0.00152274
0.00271881
0.00395538
0.00523091
0.00654385
0.00789256
0.00927537
0.0106905
0.0121363
0.0136108
0.0151123
0.0166387
0.0181883
0.019759
0.0213489
0.0229559
0.024578
0.026213
0.027859
0.0295137
0.031175
0.0328407
0.0345087
0.0361768
0.0378428
0.0395045
0.0411597
0.0428061
0.0444417
0.0460641
0.0476713
0.049261
0.0508311
0.0523796
0.0539042
0.0554029
0.0568737
0.0583144
0.0597232
0.0610982
0.0624373
0.0637388
0.065001
0.0662219
0.0674001
0.0685337
0.0696214
0.0706617
0.0716531
0.0725943
0.0734842
0.0743215
0.0751053
0.0758346
0.0765085
0.0771264
0.0776876
0.0781916
0.0786381
0.0790269
0.0793578
0.0796308
0.0798461
0.0800039
0.0801048
0.0801493
0.0801382
0.0800725
0.0799532
0.0797816
0.0795592
0.0792875
0.0789684
0.0786039
0.0781962
0.0777476
0.0772608
0.0767384
0.0761836
0.0755995
0.0749894
0.0743571
0.0737062
0.0730408
0.072365
0.0716833
0.0710002
0.0703204
0.0696486
0.06899
0.0683494
0.0677321
0.0671433
0.066588
0.0660714
0.0655986
0.0651746
0.0648043
0.0644927
0.0642451
0.0640644
0.063949
0.00426524
0.00402981
0.00375764
0.00343875
0.00306621
0.00264504
0.00218022
0.00167606
0.00113699
0.000567629
-2.73973e-05
-0.000643426
-0.00127581
-0.00191992
-0.00257122
-0.00322526
-0.0038777
-0.00452435
-0.00516117
-0.0057843
-0.00639008
-0.00697502
-0.00753584
-0.00806941
-0.00857283
-0.00904335
-0.00947842
-0.00987566
-0.0102329
-0.0105481
-0.0108195
-0.0110453
-0.0112242
-0.0113548
-0.0114359
-0.0114666
-0.0114459
-0.0113732
-0.0112479
-0.0110695
-0.0108377
-0.0105523
-0.0102132
-0.00982041
-0.00937407
-0.00887438
-0.00832168
-0.00771641
-0.00705911
-0.00635041
-0.005591
-0.00478168
-0.00392331
-0.00301685
-0.0020633
-0.00106376
-1.9401e-05
0.00106856
0.00219881
0.00337
0.00458071
0.00582946
0.00711472
0.00843492
0.0097884
0.0111735
0.0125885
0.0140315
0.0155009
0.0169948
0.0185112
0.0200483
0.0216041
0.0231766
0.024764
0.026364
0.0279747
0.0295939
0.0312196
0.0328498
0.0344821
0.0361146
0.037745
0.0393713
0.0409912
0.0426026
0.0442034
0.0457914
0.0473645
0.0489206
0.0504577
0.0519735
0.0534661
0.0549335
0.0563735
0.0577843
0.0591639
0.0605104
0.061822
0.0630969
0.0643334
0.0655296
0.0666841
0.0677953
0.0688615
0.0698815
0.0708538
0.0717771
0.0726504
0.0734724
0.0742421
0.0749587
0.0756214
0.0762293
0.0767821
0.0772791
0.07772
0.0781046
0.0784327
0.0787045
0.07892
0.0790795
0.0791834
0.0792325
0.0792273
0.0791689
0.0790582
0.0788965
0.0786852
0.0784259
0.0781203
0.0777703
0.077378
0.0769457
0.0764758
0.0759711
0.0754342
0.0748684
0.0742768
0.0736627
0.0730299
0.0723819
0.0717228
0.0710566
0.0703875
0.0697199
0.0690582
0.0684071
0.0677711
0.0671549
0.0665632
0.0660007
0.0654719
0.0649816
0.0645339
0.0641333
0.0637845
0.0634924
0.0632529
0.0630587
0.00523236
0.00491088
0.00457342
0.00420401
0.00378843
0.00333128
0.00283736
0.00231032
0.001754
0.00117243
0.000569738
-4.99203e-05
-0.000682365
-0.00132343
-0.00196898
-0.00261497
-0.00325742
-0.0038925
-0.0045165
-0.00512584
-0.00571714
-0.00628716
-0.00683281
-0.00735119
-0.00783957
-0.00829535
-0.00871613
-0.00909966
-0.00944388
-0.00974688
-0.0100069
-0.0102225
-0.0103921
-0.0105145
-0.0105886
-0.0106135
-0.0105882
-0.0105122
-0.0103849
-0.0102058
-0.00997469
-0.00969127
-0.00935549
-0.00896735
-0.00852697
-0.00803455
-0.00749044
-0.00689506
-0.00624892
-0.00555264
-0.00480688
-0.00401243
-0.00317012
-0.00228086
-0.00134564
-0.000365525
0.000658355
0.0017248
0.00283255
0.00398029
0.00516663
0.00639014
0.00764933
0.00894265
0.0102685
0.0116253
0.0130112
0.0144247
0.0158638
0.0173269
0.0188121
0.0203175
0.0218413
0.0233814
0.024936
0.0265031
0.0280806
0.0296665
0.0312588
0.0328554
0.0344542
0.0360532
0.0376502
0.0392431
0.0408299
0.0424085
0.0439766
0.0455323
0.0470735
0.0485981
0.0501041
0.0515894
0.053052
0.0544899
0.0559012
0.0572839
0.0586362
0.0599561
0.061242
0.062492
0.0637044
0.0648777
0.0660101
0.0671001
0.0681463
0.0691474
0.0701018
0.0710085
0.0718662
0.0726739
0.0734305
0.0741353
0.0747874
0.075386
0.0759307
0.0764211
0.0768566
0.0772372
0.0775626
0.077833
0.0780484
0.0782092
0.0783157
0.0783685
0.0783684
0.0783162
0.078213
0.0780599
0.0778583
0.0776096
0.0773156
0.076978
0.0765989
0.0761805
0.075725
0.075235
0.0747133
0.0741626
0.073586
0.0729868
0.0723682
0.0717338
0.0710873
0.0704324
0.0697731
0.0691133
0.0684572
0.067809
0.0671729
0.0665531
0.065954
0.0653796
0.0648342
0.0643218
0.0638462
0.0634111
0.0630211
0.0626807
0.0623789
0.0621025
0.00625028
0.00584083
0.00543564
0.00501287
0.00455101
0.00405437
0.00352762
0.00297381
0.0023962
0.0017983
0.00118377
0.000556284
-8.04062e-05
-0.000722551
-0.00136642
-0.00200834
-0.00264469
-0.00327196
-0.00388675
-0.00448578
-0.00506591
-0.00562415
-0.00615762
-0.00666363
-0.00713959
-0.00758308
-0.00799186
-0.0083638
-0.00869696
-0.00898955
-0.00923993
-0.00944661
-0.00960825
-0.00972366
-0.00979179
-0.00981172
-0.00978266
-0.00970399
-0.00957516
-0.00939577
-0.00916552
-0.00888421
-0.00855174
-0.00816814
-0.0077335
-0.00724806
-0.00671213
-0.00612613
-0.00549057
-0.00480602
-0.00407316
-0.00329273
-0.00246555
-0.00159249
-0.000674533
0.000287301
0.00129191
0.00233812
0.0034247
0.00455038
0.0057138
0.00691358
0.00814824
0.0094163
0.0107162
0.0120463
0.013405
0.0147906
0.0162013
0.0176356
0.0190914
0.0205671
0.0220607
0.0235704
0.0250943
0.0266304
0.0281767
0.0297313
0.0312922
0.0328574
0.0344248
0.0359923
0.037558
0.0391198
0.0406755
0.0422232
0.0437608
0.0452863
0.0467976
0.0482928
0.0497697
0.0512264
0.052661
0.0540714
0.0554559
0.0568124
0.0581391
0.0594343
0.0606962
0.061923
0.063113
0.0642648
0.0653766
0.066447
0.0674746
0.068458
0.0693958
0.070287
0.0711302
0.0719246
0.072669
0.0733627
0.0740049
0.0745948
0.075132
0.075616
0.0760465
0.0764231
0.0767459
0.0770148
0.0772299
0.0773915
0.0775
0.077556
0.0775601
0.0775133
0.0774163
0.0772705
0.0770771
0.0768375
0.0765533
0.0762262
0.0758582
0.0754513
0.0750078
0.07453
0.0740205
0.073482
0.0729174
0.0723296
0.0717219
0.0710975
0.0704599
0.0698124
0.0691588
0.0685028
0.0678482
0.0671987
0.0665583
0.0659307
0.0653199
0.0647296
0.0641635
0.0636251
0.0631178
0.0626447
0.0622103
0.0618186
0.0614519
0.0610912
0.0073087
0.00681029
0.00633575
0.00585744
0.00534671
0.0048077
0.00424496
0.00366101
0.00305858
0.00244072
0.00181063
0.00117157
0.000526877
-0.000120093
-0.000765983
-0.00140747
-0.00204127
-0.00266419
-0.00327312
-0.00386506
-0.00443711
-0.00498651
-0.0055106
-0.00600685
-0.00647287
-0.0069064
-0.00730534
-0.0076677
-0.00799166
-0.00827554
-0.00851779
-0.00871702
-0.00887196
-0.00898148
-0.0090446
-0.00906045
-0.0090283
-0.00894755
-0.00881768
-0.00863833
-0.00840919
-0.0081301
-0.00780095
-0.00742178
-0.0069927
-0.00651393
-0.00598579
-0.00540869
-0.00478312
-0.00410966
-0.00338896
-0.00262173
-0.00180877
-0.000950946
-4.92e-05
0.000895464
0.00188197
0.00290919
0.00397591
0.00508089
0.00622281
0.00740032
0.00861199
0.00985634
0.0111319
0.012437
0.0137701
0.0151296
0.0165137
0.0179209
0.0193492
0.020797
0.0222624
0.0237436
0.0252387
0.0267458
0.028263
0.0297883
0.0313199
0.0328556
0.0343936
0.0359317
0.0374681
0.0390007
0.0405275
0.0420464
0.0435555
0.0450528
0.0465362
0.0480039
0.0494537
0.0508839
0.0522923
0.0536772
0.0550366
0.0563688
0.0576718
0.0589439
0.0601835
0.0613887
0.062558
0.0636898
0.0647825
0.0658348
0.066845
0.067812
0.0687345
0.0696112
0.0704411
0.071223
0.0719562
0.0726396
0.0732725
0.0738544
0.0743845
0.0748626
0.0752881
0.075661
0.0759811
0.0762484
0.0764629
0.076625
0.0767351
0.0767936
0.0768012
0.0767587
0.076667
0.0765273
0.0763407
0.0761086
0.0758325
0.0755141
0.0751552
0.0747577
0.0743238
0.0738557
0.0733559
0.0728268
0.0722712
0.0716919
0.0710918
0.070474
0.0698418
0.0691982
0.0685467
0.0678908
0.0672337
0.0665792
0.0659307
0.0652916
0.0646653
0.0640554
0.063465
0.0628974
0.0623552
0.0618411
0.0613596
0.0609144
0.060481
0.0600348
0.00839825
0.00781059
0.00726569
0.00673026
0.00616866
0.00558489
0.00498351
0.00436655
0.00373625
0.00309524
0.00244631
0.00179234
0.00113627
0.000481099
-0.000170166
-0.000814533
-0.00144904
-0.00207079
-0.00267695
-0.00326478
-0.00383162
-0.00437491
-0.0048922
-0.00538116
-0.00583957
-0.00626532
-0.00665645
-0.00701113
-0.00732764
-0.00760442
-0.00784003
-0.00803314
-0.00818257
-0.00828728
-0.00834633
-0.00835892
-0.00832436
-0.00824208
-0.00811163
-0.00793264
-0.00770484
-0.00742807
-0.00710225
-0.00672741
-0.00630369
-0.0058313
-0.00531057
-0.0047419
-0.00412577
-0.00346275
-0.00275347
-0.00199864
-0.00119903
-0.000355493
0.000531059
0.00145964
0.0024292
0.00343863
0.00448676
0.00557238
0.00669419
0.00785086
0.00904102
0.0102632
0.0115159
0.0127977
0.0141069
0.015442
0.0168013
0.0181831
0.0195857
0.0210075
0.0224465
0.0239011
0.0253693
0.0268494
0.0283394
0.0298374
0.0313415
0.0328498
0.0343603
0.0358711
0.0373803
0.0388857
0.0403855
0.0418777
0.0433602
0.0448312
0.0462888
0.0477308
0.0491556
0.050561
0.0519452
0.0533064
0.0546426
0.0559522
0.0572332
0.058484
0.0597029
0.0608882
0.0620383
0.0631516
0.0642267
0.0652621
0.0662564
0.0672083
0.0681166
0.06898
0.0697975
0.070568
0.0712907
0.0719646
0.072589
0.0731632
0.0736868
0.0741593
0.0745803
0.0749495
0.075267
0.0755325
0.0757463
0.0759086
0.0760197
0.0760801
0.0760905
0.0760515
0.0759641
0.0758293
0.0756482
0.0754222
0.0751527
0.0748412
0.0744895
0.0740994
0.0736729
0.0732122
0.0727196
0.0721973
0.071648
0.0710742
0.0704788
0.0698646
0.0692345
0.0685915
0.0679388
0.0672795
0.0666167
0.0659536
0.0652935
0.0646394
0.0639945
0.0633617
0.062744
0.0621441
0.0615643
0.0610069
0.0604761
0.0599758
0.0594746
0.0589424
0.00951044
0.00883373
0.00821796
0.00762431
0.00701029
0.00637988
0.00573766
0.00508524
0.00442444
0.00375751
0.00308686
0.00241501
0.00174456
0.00107815
0.000418477
-0.000231786
-0.000869975
-0.00149347
-0.0020997
-0.00268616
-0.00325042
-0.00379014
-0.00430306
-0.00478702
-0.00523998
-0.00565999
-0.00604524
-0.00639401
-0.00670474
-0.00697595
-0.00720629
-0.00739455
-0.00753962
-0.00764052
-0.00769639
-0.00770648
-0.00767017
-0.00758692
-0.0074563
-0.00727798
-0.00705172
-0.00677737
-0.00645487
-0.00608427
-0.00566571
-0.00519942
-0.00468571
-0.00412501
-0.00351777
-0.00286456
-0.002166
-0.00142278
-0.000635668
0.000194516
0.00106687
0.00198043
0.00293417
0.00392701
0.00495779
0.00602534
0.00712839
0.00826564
0.00943574
0.0106373
0.0118688
0.0131288
0.0144157
0.015728
0.0170641
0.0184224
0.0198011
0.0211986
0.0226131
0.0240429
0.0254861
0.026941
0.0284057
0.0298783
0.0313569
0.0328398
0.0343248
0.0358102
0.037294
0.0387743
0.040249
0.0417164
0.0431744
0.0446211
0.0460546
0.0474731
0.0488745
0.0502571
0.0516189
0.0529582
0.054273
0.0555617
0.0568225
0.0580536
0.0592535
0.0604204
0.0615529
0.0626493
0.0637081
0.0647281
0.0657077
0.0666457
0.0675409
0.0683921
0.0691982
0.0699582
0.0706712
0.0713364
0.0719529
0.0725202
0.0730377
0.073505
0.0739216
0.0742874
0.0746022
0.074866
0.0750789
0.0752411
0.0753528
0.0754145
0.0754269
0.0753907
0.0753066
0.0751756
0.0749989
0.0747776
0.0745131
0.074207
0.0738607
0.0734761
0.0730551
0.0725996
0.0721118
0.0715939
0.0710483
0.0704775
0.0698839
0.0692704
0.0686395
0.0679941
0.0673371
0.0666713
0.0659996
0.0653249
0.0646501
0.063978
0.0633114
0.062653
0.0620052
0.0613706
0.060751
0.0601482
0.0595665
0.0590099
0.0584402
0.0578221
0.0106375
0.00987236
0.00918559
0.00853299
0.00786542
0.00718685
0.006502
0.00581208
0.00511855
0.0044233
0.00372841
0.00303607
0.00234854
0.00166818
0.000997358
0.000338466
-0.000306108
-0.000934004
-0.0015429
-0.00213051
-0.00269464
-0.00323312
-0.00374391
-0.004225
-0.00467453
-0.00509072
-0.00547187
-0.00581642
-0.00612291
-0.00638997
-0.00661637
-0.00680097
-0.00694275
-0.0070408
-0.00709433
-0.00710266
-0.00706521
-0.00698149
-0.0068511
-0.00667374
-0.0064492
-0.00617735
-0.00585816
-0.00549169
-0.0050781
-0.00461761
-0.00411057
-0.00355737
-0.00295849
-0.00231447
-0.00162593
-0.000893554
-0.000118088
0.000699652
0.00155878
0.00245837
0.00339739
0.00437479
0.00538946
0.00644021
0.00752583
0.00864504
0.0097965
0.0109788
0.0121906
0.0134304
0.0146967
0.0159879
0.0173025
0.0186389
0.0199954
0.0213704
0.0227622
0.024169
0.0255891
0.0270206
0.0284618
0.0299109
0.031366
0.0328253
0.0342868
0.0357487
0.0372091
0.038666
0.0401177
0.0415621
0.0429975
0.0444218
0.0458332
0.0472299
0.0486099
0.0499715
0.0513127
0.0526318
0.0539271
0.0551966
0.0564388
0.0576519
0.0588344
0.0599845
0.0611008
0.0621816
0.0632257
0.0642315
0.0651977
0.0661231
0.0670064
0.0678464
0.0686422
0.0693926
0.0700968
0.0707539
0.0713633
0.0719241
0.072436
0.0728984
0.073311
0.0736735
0.0739858
0.0742478
0.0744596
0.0746213
0.0747333
0.0747959
0.0748098
0.0747754
0.0746938
0.0745656
0.0743921
0.0741743
0.0739135
0.0736111
0.0732687
0.0728878
0.0724703
0.072018
0.0715329
0.0710171
0.0704729
0.0699025
0.0693083
0.0686928
0.0680585
0.0674079
0.0667438
0.0660687
0.0653852
0.064696
0.0640038
0.063311
0.0626201
0.0619335
0.0612535
0.0605819
0.0599206
0.0592708
0.0586371
0.0580234
0.057385
0.0566814
0.0117725
0.0109197
0.0101621
0.00945015
0.00872821
0.00800035
0.00727142
0.00654231
0.00581414
0.00508851
0.00436718
0.00365204
0.00294506
0.00224831
0.00156387
0.000893884
0.00024047
-0.00039425
-0.00100818
-0.00159926
-0.00216548
-0.00270489
-0.0032156
-0.00369581
-0.0041438
-0.00455792
-0.00493666
-0.00527855
-0.00558225
-0.00584651
-0.00607019
-0.00625225
-0.00639174
-0.00648784
-0.00653983
-0.00654708
-0.00650906
-0.00642534
-0.00629554
-0.00611941
-0.00589675
-0.00562748
-0.00531157
-0.00494912
-0.00454029
-0.00408532
-0.00358457
-0.00303842
-0.00244735
-0.00181191
-0.00113271
-0.00041042
0.000354224
0.00116041
0.00200729
0.00289391
0.0038193
0.00478242
0.00578216