/*--------------------------------*- C++ -*----------------------------------*\
  =========                 |
  \\      /  F ield         | OpenFOAM: The Open Source CFD Toolbox
   \\    /   O peration     | Website:  https://openfoam.org
    \\  /    A nd           | Version:  7
     \\/     M anipulation  |
\*---------------------------------------------------------------------------*/
FoamFile
{
    version     2.0;
    format      ascii;
    class       surfaceScalarField;
    location    "0.325";
    object      phi;
}
// * * * * * * * * * * * * * * * * * * * * * * * * * * * * * * * * * * * * * //

dimensions      [0 3 -1 0 0 0 0];

internalField   nonuniform List<scalar> 
50880
(
5.77491e-12
-6.45714e-12
3.61515e-11
-3.02888e-11
8.1075e-11
-4.49339e-11
1.3072e-10
-4.96642e-11
1.77969e-10
-4.72461e-11
2.17836e-10
-3.98615e-11
2.46897e-10
-2.90576e-11
2.6284e-10
-1.59449e-11
2.64144e-10
-1.30615e-12
2.49845e-10
1.43007e-11
2.19382e-10
3.04667e-11
1.72491e-10
4.68924e-11
1.09138e-10
6.33549e-11
2.94559e-11
7.96839e-11
-6.62929e-11
9.57491e-11
-1.77744e-10
1.1145e-10
-3.04453e-10
1.26708e-10
-4.45918e-10
1.41464e-10
-6.01588e-10
1.5567e-10
-7.70876e-10
1.69289e-10
-9.53168e-10
1.82293e-10
-1.14783e-09
1.94661e-10
-1.35421e-09
2.06376e-10
-1.57164e-09
2.17429e-10
-1.79945e-09
2.27812e-10
-2.03697e-09
2.37521e-10
-2.28352e-09
2.46555e-10
-2.53844e-09
2.54915e-10
-2.80104e-09
2.62602e-10
-3.07066e-09
2.69621e-10
-3.34664e-09
2.75976e-10
-3.62831e-09
2.81675e-10
-3.91504e-09
2.86725e-10
-4.20617e-09
2.91134e-10
-4.50109e-09
2.94912e-10
-4.79916e-09
2.98068e-10
-5.09977e-09
3.00613e-10
-5.40233e-09
3.02556e-10
-5.70624e-09
3.0391e-10
-6.01093e-09
3.04685e-10
-6.31582e-09
3.04893e-10
-6.62036e-09
3.04546e-10
-6.92402e-09
3.03657e-10
-7.22626e-09
3.02237e-10
-7.52655e-09
3.00298e-10
-7.82441e-09
2.97854e-10
-8.11933e-09
2.94918e-10
-8.41083e-09
2.915e-10
-8.69844e-09
2.87615e-10
-8.98172e-09
2.83276e-10
-9.26022e-09
2.78495e-10
-9.5335e-09
2.73285e-10
-9.80116e-09
2.6766e-10
-1.00628e-08
2.61633e-10
-1.0318e-08
2.55216e-10
-1.05664e-08
2.48423e-10
-1.08077e-08
2.41267e-10
-1.10415e-08
2.33761e-10
-1.12674e-08
2.25919e-10
-1.14851e-08
2.17753e-10
-1.16944e-08
2.09277e-10
-1.18949e-08
2.00505e-10
-1.20864e-08
1.91449e-10
-1.22685e-08
1.82124e-10
-1.2441e-08
1.72542e-10
-1.26038e-08
1.62718e-10
-1.27564e-08
1.52665e-10
-1.28988e-08
1.42396e-10
-1.30307e-08
1.31927e-10
-1.3152e-08
1.21269e-10
-1.32624e-08
1.10439e-10
-1.33619e-08
9.94485e-11
-1.34502e-08
8.83134e-11
-1.35273e-08
7.70475e-11
-1.35929e-08
6.5665e-11
-1.36471e-08
5.41807e-11
-1.36897e-08
4.26093e-11
-1.37207e-08
3.09657e-11
-1.37399e-08
1.92648e-11
-1.37475e-08
7.52172e-12
-1.37432e-08
-4.24833e-12
-1.37272e-08
-1.60299e-11
-1.36994e-08
-2.78075e-11
-1.36598e-08
-3.95654e-11
-1.36085e-08
-5.12877e-11
-1.35456e-08
-6.29586e-11
-1.3471e-08
-7.45619e-11
-1.33849e-08
-8.60816e-11
-1.32874e-08
-9.75013e-11
-1.31786e-08
-1.08805e-10
-1.30586e-08
-1.19975e-10
-1.29276e-08
-1.30995e-10
-1.27858e-08
-1.41849e-10
-1.26333e-08
-1.52519e-10
-1.24703e-08
-1.62989e-10
-1.22971e-08
-1.73242e-10
-1.21138e-08
-1.8326e-10
-1.19208e-08
-1.93027e-10
-1.17182e-08
-2.02525e-10
-1.15065e-08
-2.11738e-10
-1.12859e-08
-2.20648e-10
-1.10566e-08
-2.29238e-10
-1.08191e-08
-2.37491e-10
-1.05737e-08
-2.45391e-10
-1.03208e-08
-2.52921e-10
-1.00607e-08
-2.60063e-10
-9.79395e-09
-2.66802e-10
-9.52083e-09
-2.7312e-10
-9.24182e-09
-2.79003e-10
-8.95739e-09
-2.84433e-10
-8.66799e-09
-2.89396e-10
-8.37412e-09
-2.93875e-10
-8.07626e-09
-2.97856e-10
-7.77493e-09
-3.01324e-10
-7.47067e-09
-3.04265e-10
-7.16401e-09
-3.06664e-10
-6.8555e-09
-3.08508e-10
-6.54571e-09
-3.09785e-10
-6.23523e-09
-3.10481e-10
-5.92465e-09
-3.10585e-10
-5.61456e-09
-3.10084e-10
-5.30559e-09
-3.08969e-10
-4.99837e-09
-3.07229e-10
-4.69351e-09
-3.04854e-10
-4.39167e-09
-3.01837e-10
-4.09351e-09
-2.98169e-10
-3.79966e-09
-2.93843e-10
-3.51081e-09
-2.88854e-10
-3.22761e-09
-2.83197e-10
-2.95074e-09
-2.76867e-10
-2.68088e-09
-2.69863e-10
-2.4187e-09
-2.62183e-10
-2.16487e-09
-2.53827e-10
-1.92007e-09
-2.44798e-10
-1.68497e-09
-2.351e-10
-1.46023e-09
-2.24738e-10
-1.24651e-09
-2.13722e-10
-1.04445e-09
-2.02062e-10
-8.54676e-10
-1.89774e-10
-6.77799e-10
-1.76877e-10
-5.14406e-10
-1.63393e-10
-3.65053e-10
-1.49353e-10
-2.30261e-10
-1.34793e-10
-1.10506e-10
-1.19756e-10
-6.20755e-12
-1.04299e-10
8.2282e-11
-8.84895e-11
1.54697e-10
-7.24145e-11
2.10881e-10
-5.61818e-11
2.50811e-10
-3.99297e-11
2.74646e-10
-2.3835e-11
2.82771e-10
-8.1259e-12
2.75877e-10
6.89503e-12
2.55061e-10
2.08186e-11
2.2198e-10
3.30841e-11
1.79066e-10
4.29123e-11
1.29844e-10
4.92165e-11
7.93301e-11
5.0507e-11
3.45982e-11
4.47329e-11
5.31327e-12
2.93049e-11
5.33869e-12
3.00127e-11
-3.63823e-11
1.0112e-10
-1.01436e-10
1.95366e-10
-1.39214e-10
2.9569e-10
-1.49974e-10
3.87707e-10
-1.39253e-10
4.60176e-10
-1.1233e-10
5.04642e-10
-7.35289e-11
5.14927e-10
-2.62303e-11
4.86642e-10
2.69839e-11
4.16787e-10
8.41609e-11
3.03439e-10
1.43817e-10
1.45514e-10
2.04819e-10
-5.74198e-11
2.6629e-10
-3.05286e-10
3.27551e-10
-5.97607e-10
3.88069e-10
-9.33583e-10
4.47425e-10
-1.31217e-09
5.05289e-10
-1.7321e-09
5.614e-10
-2.19198e-09
6.1555e-10
-2.69027e-09
6.67577e-10
-3.22533e-09
7.17351e-10
-3.79544e-09
7.64775e-10
-4.39884e-09
8.09772e-10
-5.0337e-09
8.52286e-10
-5.69816e-09
8.92277e-10
-6.39036e-09
9.29719e-10
-7.10839e-09
9.64595e-10
-7.85038e-09
9.96901e-10
-8.61441e-09
1.02664e-09
-9.39861e-09
1.05381e-09
-1.02011e-08
1.07844e-09
-1.102e-08
1.10055e-09
-1.18534e-08
1.12015e-09
-1.26995e-08
1.13729e-09
-1.35566e-08
1.15198e-09
-1.44228e-08
1.16426e-09
-1.52964e-08
1.17417e-09
-1.61756e-08
1.18175e-09
-1.70587e-08
1.18704e-09
-1.79441e-08
1.19008e-09
-1.88301e-08
1.19091e-09
-1.97152e-08
1.18959e-09
-2.05976e-08
1.18614e-09
-2.1476e-08
1.18063e-09
-2.23488e-08
1.17309e-09
-2.32145e-08
1.16358e-09
-2.40718e-08
1.15214e-09
-2.49191e-08
1.13883e-09
-2.57552e-08
1.12368e-09
-2.65787e-08
1.10676e-09
-2.73883e-08
1.08811e-09
-2.81828e-08
1.06779e-09
-2.8961e-08
1.04583e-09
-2.97216e-08
1.0223e-09
-3.04637e-08
9.97248e-10
-3.1186e-08
9.70719e-10
-3.18875e-08
9.42766e-10
-3.25671e-08
9.13443e-10
-3.3224e-08
8.828e-10
-3.38572e-08
8.5089e-10
-3.44657e-08
8.17765e-10
-3.50486e-08
7.83477e-10
-3.56053e-08
7.48079e-10
-3.61348e-08
7.11624e-10
-3.66364e-08
6.74165e-10
-3.71094e-08
6.35755e-10
-3.75532e-08
5.96448e-10
-3.79671e-08
5.56298e-10
-3.83505e-08
5.1536e-10
-3.87029e-08
4.73688e-10
-3.90238e-08
4.31337e-10
-3.93128e-08
3.88363e-10
-3.95693e-08
3.44822e-10
-3.9793e-08
3.0077e-10
-3.99836e-08
2.56264e-10
-4.01408e-08
2.11362e-10
-4.02643e-08
1.6612e-10
-4.03539e-08
1.20599e-10
-4.04095e-08
7.48551e-11
-4.04309e-08
2.89493e-11
-4.04181e-08
-1.70588e-11
-4.03711e-08
-6.31088e-11
-4.02897e-08
-1.0914e-10
-4.01742e-08
-1.5509e-10
-4.00246e-08
-2.00898e-10
-3.9841e-08
-2.46501e-10
-3.96238e-08
-2.91836e-10
-3.9373e-08
-3.36839e-10
-3.90891e-08
-3.81446e-10
-3.87723e-08
-4.25594e-10
-3.8423e-08
-4.69216e-10
-3.80418e-08
-5.12249e-10
-3.7629e-08
-5.54626e-10
-3.71852e-08
-5.96281e-10
-3.67111e-08
-6.37149e-10
-3.62072e-08
-6.77162e-10
-3.56742e-08
-7.16255e-10
-3.51128e-08
-7.54362e-10
-3.45239e-08
-7.91414e-10
-3.39083e-08
-8.27347e-10
-3.32669e-08
-8.62093e-10
-3.26005e-08
-8.95586e-10
-3.19103e-08
-9.27761e-10
-3.11971e-08
-9.58552e-10
-3.04621e-08
-9.87893e-10
-2.97065e-08
-1.01572e-09
-2.89313e-08
-1.04197e-09
-2.81379e-08
-1.06658e-09
-2.73274e-08
-1.08948e-09
-2.65012e-08
-1.11062e-09
-2.56607e-08
-1.12993e-09
-2.48072e-08
-1.14736e-09
-2.39422e-08
-1.16284e-09
-2.30672e-08
-1.17633e-09
-2.21837e-08
-1.18776e-09
-2.12933e-08
-1.19708e-09
-2.03976e-08
-1.20424e-09
-1.94982e-08
-1.20919e-09
-1.85967e-08
-1.21189e-09
-1.7695e-08
-1.21228e-09
-1.67948e-08
-1.21033e-09
-1.58978e-08
-1.20599e-09
-1.50058e-08
-1.19923e-09
-1.41206e-08
-1.19002e-09
-1.32441e-08
-1.17831e-09
-1.23782e-08
-1.16409e-09
-1.15247e-08
-1.14733e-09
-1.06856e-08
-1.12801e-09
-9.86264e-09
-1.10612e-09
-9.05787e-09
-1.08164e-09
-8.27317e-09
-1.05456e-09
-7.51045e-09
-1.0249e-09
-6.77162e-09
-9.92654e-10
-6.05858e-09
-9.57837e-10
-5.37321e-09
-9.20472e-10
-4.71735e-09
-8.80592e-10
-4.09284e-09
-8.38237e-10
-3.50144e-09
-7.93463e-10
-2.94488e-09
-7.46337e-10
-2.42481e-09
-6.96946e-10
-1.94281e-09
-6.45393e-10
-1.50035e-09
-5.91809e-10
-1.0988e-09
-5.3635e-10
-7.39343e-10
-4.79209e-10
-4.23018e-10
-4.20623e-10
-1.50626e-10
-3.60881e-10
7.7301e-11
-3.0034e-10
2.60567e-10
-2.39447e-10
3.99393e-10
-1.78755e-10
4.94526e-10
-1.18966e-10
5.47374e-10
-6.09697e-11
5.60177e-10
-5.90789e-12
5.36252e-10
4.47407e-11
4.80289e-10
8.90463e-11
3.98726e-10
1.2448e-10
3.00193e-10
1.47755e-10
1.95951e-10
1.54742e-10
1.00147e-10
1.40516e-10
2.92534e-11
1.00174e-10
3.4606e-11
4.48105e-11
-8.1203e-11
1.39047e-10
-1.95708e-10
2.56264e-10
-2.5643e-10
3.74811e-10
-2.68513e-10
4.76402e-10
-2.40836e-10
5.46156e-10
-1.82085e-10
5.72371e-10
-9.97473e-11
5.46098e-10
4.2349e-14
4.60705e-10
1.12379e-10
3.11452e-10
2.33417e-10
9.51459e-11
3.60127e-10
-1.90164e-10
4.90131e-10
-5.45426e-10
6.21553e-10
-9.7078e-10
7.52905e-10
-1.46572e-09
8.83006e-10
-2.02921e-09
1.01091e-09
-2.65979e-09
1.13587e-09
-3.35565e-09
1.25727e-09
-4.11473e-09
1.37463e-09
-4.93471e-09
1.48756e-09
-5.81311e-09
1.59575e-09
-6.74731e-09
1.69897e-09
-7.73456e-09
1.79702e-09
-8.77203e-09
1.88976e-09
-9.85683e-09
1.97708e-09
-1.0986e-08
2.0589e-09
-1.21566e-08
2.13519e-09
-1.33656e-08
2.2059e-09
-1.461e-08
2.27104e-09
-1.58868e-08
2.3306e-09
-1.7193e-08
2.38462e-09
-1.85256e-08
2.43313e-09
-1.98816e-08
2.47617e-09
-2.12581e-08
2.51381e-09
-2.26522e-08
2.54609e-09
-2.40611e-08
2.57309e-09
-2.54818e-08
2.59489e-09
-2.69116e-08
2.61157e-09
-2.83478e-08
2.6232e-09
-2.97876e-08
2.62989e-09
-3.12284e-08
2.63172e-09
-3.26676e-08
2.62879e-09
-3.41026e-08
2.62119e-09
-3.5531e-08
2.60902e-09
-3.69503e-08
2.59239e-09
-3.83581e-08
2.57141e-09
-3.97522e-08
2.54616e-09
-4.11301e-08
2.51677e-09
-4.24898e-08
2.48334e-09
-4.3829e-08
2.44598e-09
-4.51457e-08
2.4048e-09
-4.64378e-08
2.35991e-09
-4.77034e-08
2.31141e-09
-4.89405e-08
2.25943e-09
-5.01473e-08
2.20407e-09
-5.13221e-08
2.14545e-09
-5.2463e-08
2.08367e-09
-5.35684e-08
2.01887e-09
-5.46367e-08
1.95114e-09
-5.56664e-08
1.8806e-09
-5.66561e-08
1.80738e-09
-5.76042e-08
1.73157e-09
-5.85094e-08
1.65332e-09
-5.93705e-08
1.57272e-09
-6.01862e-08
1.48989e-09
-6.09554e-08
1.40496e-09
-6.1677e-08
1.31805e-09
-6.235e-08
1.22927e-09
-6.29734e-08
1.13875e-09
-6.35463e-08
1.0466e-09
-6.40679e-08
9.52954e-10
-6.45375e-08
8.57929e-10
-6.49543e-08
7.61651e-10
-6.53178e-08
6.64245e-10
-6.56274e-08
5.65836e-10
-6.58825e-08
4.66553e-10
-6.6083e-08
3.66524e-10
-6.62282e-08
2.65878e-10
-6.63181e-08
1.64746e-10
-6.63524e-08
6.326e-11
-6.6331e-08
-3.8448e-11
-6.62539e-08
-1.40244e-10
-6.61211e-08
-2.41992e-10
-6.59326e-08
-3.43556e-10
-6.56887e-08
-4.44798e-10
-6.53896e-08
-5.45581e-10
-6.50357e-08
-6.45765e-10
-6.46273e-08
-7.45208e-10
-6.4165e-08
-8.4377e-10
-6.36493e-08
-9.41308e-10
-6.30808e-08
-1.03768e-09
-6.24603e-08
-1.13274e-09
-6.17886e-08
-1.22634e-09
-6.10666e-08
-1.31834e-09
-6.02951e-08
-1.40859e-09
-5.94753e-08
-1.49695e-09
-5.86083e-08
-1.58326e-09
-5.76953e-08
-1.66739e-09
-5.67375e-08
-1.74919e-09
-5.57364e-08
-1.8285e-09
-5.46933e-08
-1.90519e-09
-5.36098e-08
-1.9791e-09
-5.24874e-08
-2.05009e-09
-5.1328e-08
-2.11803e-09
-5.01331e-08
-2.18276e-09
-4.89047e-08
-2.24414e-09
-4.76446e-08
-2.30203e-09
-4.63549e-08
-2.35629e-09
-4.50376e-08
-2.4068e-09
-4.36948e-08
-2.4534e-09
-4.23287e-08
-2.49598e-09
-4.09417e-08
-2.53439e-09
-3.9536e-08
-2.56852e-09
-3.81141e-08
-2.59824e-09
-3.66784e-08
-2.62343e-09
-3.52315e-08
-2.64398e-09
-3.3776e-08
-2.65976e-09
-3.23145e-08
-2.67069e-09
-3.08498e-08
-2.67665e-09
-2.93845e-08
-2.67754e-09
-2.79215e-08
-2.67328e-09
-2.64637e-08
-2.66378e-09
-2.5014e-08
-2.64896e-09
-2.35753e-08
-2.62875e-09
-2.21505e-08
-2.60308e-09
-2.07427e-08
-2.5719e-09
-1.93549e-08
-2.53515e-09
-1.79901e-08
-2.49281e-09
-1.66514e-08
-2.44484e-09
-1.53418e-08
-2.39122e-09
-1.40644e-08
-2.33196e-09
-1.28222e-08
-2.26706e-09
-1.16184e-08
-2.19653e-09
-1.04558e-08
-2.12044e-09
-9.3374e-09
-2.03883e-09
-8.26621e-09
-1.95178e-09
-7.24503e-09
-1.85941e-09
-6.27665e-09
-1.76185e-09
-5.36374e-09
-1.65925e-09
-4.50884e-09
-1.55184e-09
-3.71437e-09
-1.43986e-09
-2.98256e-09
-1.32362e-09
-2.31543e-09
-1.20348e-09
-1.71474e-09
-1.0799e-09
-1.18195e-09
-9.53415e-10
-7.18133e-10
-8.24695e-10
-3.23922e-10
-6.94548e-10
6.00996e-13
-5.63969e-10
2.5603e-10
-4.34185e-10
4.43777e-10
-3.06713e-10
5.66264e-10
-1.83454e-10
6.27151e-10
-6.67925e-11
6.31622e-10
4.02694e-11
5.86722e-10
1.33944e-10
5.01736e-10
2.09465e-10
3.88586e-10
2.60912e-10
2.62182e-10
2.81166e-10
1.40556e-10
2.62159e-10
4.47011e-11
1.96014e-10
7.93076e-11
4.96633e-11
-1.30885e-10
1.5021e-10
-2.96242e-10
2.69023e-10
-3.75236e-10
3.80915e-10
-3.80405e-10
4.65083e-10
-3.25005e-10
5.04457e-10
-2.21461e-10
4.8532e-10
-8.06106e-11
3.96902e-10
8.84623e-11
2.30972e-10
2.78312e-10
-1.85222e-11
4.82913e-10
-3.55809e-10
6.97416e-10
-7.83596e-10
9.1792e-10
-1.30334e-09
1.14129e-09
-1.91543e-09
1.365e-09
-2.61944e-09
1.58702e-09
-3.41421e-09
1.80568e-09
-4.29801e-09
2.01966e-09
-5.26861e-09
2.22787e-09
-6.32342e-09
2.42944e-09
-7.45952e-09
2.62365e-09
-8.6737e-09
2.80994e-09
-9.96259e-09
2.98785e-09
-1.13226e-08
3.15702e-09
-1.275e-08
3.31718e-09
-1.4241e-08
3.4681e-09
-1.57918e-08
3.60963e-09
-1.73982e-08
3.74167e-09
-1.90565e-08
3.86415e-09
-2.07625e-08
3.97703e-09
-2.25122e-08
4.08031e-09
-2.43016e-08
4.17402e-09
-2.61267e-08
4.25821e-09
-2.79834e-08
4.33294e-09
-2.98679e-08
4.3983e-09
-3.17762e-08
4.45438e-09
-3.37044e-08
4.50129e-09
-3.56487e-08
4.53916e-09
-3.76053e-08
4.56813e-09
-3.95704e-08
4.58832e-09
-4.15404e-08
4.5999e-09
-4.35117e-08
4.60301e-09
-4.54807e-08
4.59782e-09
-4.7444e-08
4.58449e-09
-4.93982e-08
4.56319e-09
-5.13399e-08
4.5341e-09
-5.32659e-08
4.4974e-09
-5.5173e-08
4.45327e-09
-5.70581e-08
4.40188e-09
-5.89182e-08
4.34344e-09
-6.07503e-08
4.27811e-09
-6.25516e-08
4.20611e-09
-6.43193e-08
4.1276e-09
-6.60507e-08
4.0428e-09
-6.77432e-08
3.95189e-09
-6.93942e-08
3.85508e-09
-7.10013e-08
3.75254e-09
-7.25621e-08
3.6445e-09
-7.40744e-08
3.53113e-09
-7.55359e-08
3.41265e-09
-7.69446e-08
3.28926e-09
-7.82983e-08
3.16115e-09
-7.95953e-08
3.02853e-09
-8.08336e-08
2.89161e-09
-8.20115e-08
2.75059e-09
-8.31273e-08
2.60567e-09
-8.41794e-08
2.45707e-09
-8.51663e-08
2.305e-09
-8.60867e-08
2.14965e-09
-8.69392e-08
1.99126e-09
-8.77226e-08
1.83002e-09
-8.84358e-08
1.66616e-09
-8.90778e-08
1.49989e-09
-8.96475e-08
1.33142e-09
-9.01443e-08
1.16099e-09
-9.05673e-08
9.88806e-10
-9.09158e-08
8.15096e-10
-9.11894e-08
6.40086e-10
-9.13875e-08
4.64002e-10
-9.15098e-08
2.87074e-10
-9.15561e-08
1.09532e-10
-9.15262e-08
-6.83901e-11
-9.14199e-08
-2.46457e-10
-9.12375e-08
-4.24433e-10
-9.0979e-08
-6.02078e-10
-9.06446e-08
-7.79152e-10
-9.02348e-08
-9.55411e-10
-8.97499e-08
-1.13061e-09
-8.91906e-08
-1.30451e-09
-8.85576e-08
-1.47685e-09
-8.78515e-08
-1.64739e-09
-8.70733e-08
-1.81588e-09
-8.62239e-08
-1.98206e-09
-8.53046e-08
-2.14569e-09
-8.43164e-08
-2.3065e-09
-8.32608e-08
-2.46425e-09
-8.2139e-08
-2.61867e-09
-8.09528e-08
-2.76951e-09
-7.97037e-08
-2.91652e-09
-7.83934e-08
-3.05944e-09
-7.70239e-08
-3.19801e-09
-7.55971e-08
-3.33198e-09
-7.41151e-08
-3.4611e-09
-7.25801e-08
-3.58511e-09
-7.09943e-08
-3.70376e-09
-6.93603e-08
-3.8168e-09
-6.76804e-08
-3.92399e-09
-6.59574e-08
-4.02508e-09
-6.41938e-08
-4.11984e-09
-6.23926e-08
-4.20801e-09
-6.05566e-08
-4.28938e-09
-5.86889e-08
-4.36371e-09
-5.67925e-08
-4.43078e-09
-5.48707e-08
-4.49036e-09
-5.29267e-08
-4.54226e-09
-5.09638e-08
-4.58625e-09
-4.89857e-08
-4.62215e-09
-4.69957e-08
-4.64975e-09
-4.49975e-08
-4.66889e-09
-4.29948e-08
-4.67937e-09
-4.09913e-08
-4.68104e-09
-3.89908e-08
-4.67373e-09
-3.69973e-08
-4.65732e-09
-3.50146e-08
-4.63166e-09
-3.30467e-08
-4.59663e-09
-3.10977e-08
-4.55213e-09
-2.91715e-08
-4.49806e-09
-2.72723e-08
-4.43435e-09
-2.54042e-08
-4.36095e-09
-2.35712e-08
-4.27781e-09
-2.17775e-08
-4.1849e-09
-2.00272e-08
-4.08225e-09
-1.83244e-08
-3.96987e-09
-1.66731e-08
-3.84781e-09
-1.50774e-08
-3.71617e-09
-1.35411e-08
-3.57507e-09
-1.20683e-08
-3.42466e-09
-1.06625e-08
-3.26516e-09
-9.32755e-09
-3.09681e-09
-8.06687e-09
-2.91993e-09
-6.8838e-09
-2.73491e-09
-5.78146e-09
-2.54221e-09
-4.7627e-09
-2.34238e-09
-3.83007e-09
-2.13611e-09
-2.98576e-09
-1.9242e-09
-2.23154e-09
-1.70763e-09
-1.56866e-09
-1.48758e-09
-9.97741e-10
-1.26546e-09
-5.18689e-10
-1.04302e-09
-1.30523e-10
-8.22349e-10
1.68792e-10
-6.06026e-10
3.82551e-10
-3.97213e-10
5.15561e-10
-1.99803e-10
5.74426e-10
-1.85933e-11
5.67862e-10
1.40511e-10
5.07041e-10
2.70283e-10
4.0595e-10
3.61995e-10
2.8174e-10
4.05373e-10
1.55051e-10
3.88863e-10
5.05527e-11
3.00506e-10
1.29856e-10
4.7469e-11
-1.7835e-10
1.40145e-10
-3.88907e-10
2.42561e-10
-4.77645e-10
3.27336e-10
-4.65182e-10
3.72111e-10
-3.69783e-10
3.58529e-10
-2.07879e-10
2.71677e-10
6.24396e-12
9.96537e-11
2.60488e-10
-1.66805e-10
5.44773e-10
-5.34666e-10
8.50776e-10
-1.00892e-09
1.17167e-09
-1.59286e-09
1.50186e-09
-2.28836e-09
1.83679e-09
-3.09607e-09
2.17271e-09
-4.01563e-09
2.50657e-09
-5.04582e-09
2.83587e-09
-6.18472e-09
3.15855e-09
-7.42979e-09
3.47294e-09
-8.77801e-09
3.77766e-09
-1.0226e-08
4.07159e-09
-1.17698e-08
4.35382e-09
-1.34056e-08
4.62361e-09
-1.51289e-08
4.88037e-09
-1.69354e-08
5.12364e-09
-1.88204e-08
5.35306e-09
-2.07791e-08
5.56835e-09
-2.28067e-08
5.76932e-09
-2.48984e-08
5.95584e-09
-2.70492e-08
6.12783e-09
-2.92542e-08
6.28527e-09
-3.15083e-08
6.42818e-09
-3.38067e-08
6.5566e-09
-3.61444e-08
6.67063e-09
-3.85165e-08
6.77037e-09
-4.09181e-08
6.85596e-09
-4.33443e-08
6.92755e-09
-4.57905e-08
6.98533e-09
-4.82519e-08
7.02949e-09
-5.07238e-08
7.06022e-09
-5.32016e-08
7.07776e-09
-5.5681e-08
7.08233e-09
-5.81573e-08
7.07417e-09
-6.06264e-08
7.05353e-09
-6.30838e-08
7.02067e-09
-6.55256e-08
6.97584e-09
-6.79475e-08
6.91932e-09
-7.03456e-08
6.85138e-09
-7.2716e-08
6.77231e-09
-7.5055e-08
6.68237e-09
-7.73587e-08
6.58186e-09
-7.96237e-08
6.47107e-09
-8.18464e-08
6.35029e-09
-8.40234e-08
6.21982e-09
-8.61514e-08
6.07995e-09
-8.82273e-08
5.93098e-09
-9.0248e-08
5.77322e-09
-9.22105e-08
5.60696e-09
-9.41119e-08
5.43252e-09
-9.59494e-08
5.25021e-09
-9.77205e-08
5.06032e-09
-9.94225e-08
4.86318e-09
-1.01053e-07
4.65909e-09
-1.0261e-07
4.44837e-09
-1.04091e-07
4.23134e-09
-1.05493e-07
4.00832e-09
-1.06816e-07
3.77962e-09
-1.08056e-07
3.54557e-09
-1.09213e-07
3.30649e-09
-1.10285e-07
3.06271e-09
-1.11269e-07
2.81456e-09
-1.12165e-07
2.56238e-09
-1.12972e-07
2.30648e-09
-1.13688e-07
2.04722e-09
-1.14312e-07
1.78493e-09
-1.14843e-07
1.51996e-09
-1.1528e-07
1.25264e-09
-1.15624e-07
9.83326e-10
-1.15872e-07
7.12368e-10
-1.16025e-07
4.4012e-10
-1.16082e-07
1.66938e-10
-1.16044e-07
-1.06819e-10
-1.1591e-07
-3.80789e-10
-1.1568e-07
-6.54605e-10
-1.15354e-07
-9.27901e-10
-1.14933e-07
-1.2003e-09
-1.14417e-07
-1.47144e-09
-1.13806e-07
-1.74094e-09
-1.13102e-07
-2.00841e-09
-1.12306e-07
-2.27348e-09
-1.11417e-07
-2.53576e-09
-1.10438e-07
-2.79487e-09
-1.0937e-07
-3.05043e-09
-1.08214e-07
-3.30203e-09
-1.06971e-07
-3.54929e-09
-1.05643e-07
-3.79182e-09
-1.04233e-07
-4.02923e-09
-1.02741e-07
-4.26112e-09
-1.01171e-07
-4.48709e-09
-9.95232e-08
-4.70677e-09
-9.78015e-08
-4.91976e-09
-9.60078e-08
-5.12566e-09
-9.41448e-08
-5.32408e-09
-9.22153e-08
-5.51465e-09
-9.02221e-08
-5.69697e-09
-8.81682e-08
-5.87066e-09
-8.60568e-08
-6.03536e-09
-8.38912e-08
-6.19068e-09
-8.16748e-08
-6.33626e-09
-7.94111e-08
-6.47173e-09
-7.71037e-08
-6.59674e-09
-7.47565e-08
-6.71095e-09
-7.23733e-08
-6.814e-09
-6.9958e-08
-6.90558e-09
-6.7515e-08
-6.98535e-09
-6.50482e-08
-7.05301e-09
-6.25621e-08
-7.10824e-09
-6.00611e-08
-7.15077e-09
-5.75496e-08
-7.18032e-09
-5.50324e-08
-7.19662e-09
-5.2514e-08
-7.19942e-09
-4.99993e-08
-7.1885e-09
-4.74929e-08
-7.16363e-09
-4.5e-08
-7.12463e-09
-4.25253e-08
-7.07132e-09
-4.00739e-08
-7.00354e-09
-3.76508e-08
-6.92116e-09
-3.5261e-08
-6.82409e-09
-3.29098e-08
-6.71223e-09
-3.0602e-08
-6.58555e-09
-2.83429e-08
-6.44402e-09
-2.61375e-08
-6.28768e-09
-2.39908e-08
-6.11657e-09
-2.19078e-08
-5.93081e-09
-1.98934e-08
-5.73054e-09
-1.79525e-08
-5.51597e-09
-1.60898e-08
-5.28738e-09
-1.43098e-08
-5.04511e-09
-1.26171e-08
-4.78956e-09
-1.10157e-08
-4.52126e-09
-9.50983e-09
-4.24083e-09
-8.10303e-09
-3.949e-09
-6.79874e-09
-3.64667e-09
-5.59995e-09
-3.33491e-09
-4.50918e-09
-3.01497e-09
-3.52841e-09
-2.68839e-09
-2.65902e-09
-2.35697e-09
-1.90158e-09
-2.0229e-09
-1.25583e-09
-1.68877e-09
-7.20425e-10
-1.35775e-09
-2.92831e-10
-1.03362e-09
3.0934e-11
-7.20977e-10
2.56526e-10
-4.25393e-10
3.91547e-10
-1.53605e-10
4.45823e-10
8.62434e-11
4.31727e-10
2.84382e-10
3.64508e-10
4.29206e-10
2.62702e-10
5.07173e-10
1.48643e-10
5.02927e-10
4.94257e-11
3.99727e-10
1.79278e-10
4.0376e-11
-2.18721e-10
1.14133e-10
-4.62663e-10
1.85537e-10
-5.4905e-10
2.26438e-10
-5.06084e-10
2.138e-10
-3.57146e-10
1.28667e-10
-1.22743e-10
-4.44667e-11
1.79381e-10
-3.18104e-10
5.34127e-10
-7.02101e-10
9.28771e-10
-1.20398e-09
1.35266e-09
-1.82923e-09
1.79692e-09
-2.58155e-09
2.25418e-09
-3.46309e-09
2.71833e-09
-4.4747e-09
3.18432e-09
-5.61608e-09
3.64794e-09
-6.88595e-09
4.10574e-09
-8.28224e-09
4.55484e-09
-9.80216e-09
4.99286e-09
-1.14423e-08
5.41784e-09
-1.31989e-08
5.82816e-09
-1.50676e-08
6.2225e-09
-1.70438e-08
6.59977e-09
-1.91225e-08
6.95911e-09
-2.12987e-08
7.2998e-09
-2.35669e-08
7.6213e-09
-2.59217e-08
7.92319e-09
-2.83576e-08
8.20514e-09
-3.08687e-08
8.46695e-09
-3.34493e-08
8.70848e-09
-3.60937e-08
8.92965e-09
-3.8796e-08
9.13046e-09
-4.15504e-08
9.31097e-09
-4.4351e-08
9.47127e-09
-4.71921e-08
9.61149e-09
-5.0068e-08
9.7318e-09
-5.29728e-08
9.83242e-09
-5.59011e-08
9.91358e-09
-5.88471e-08
9.97552e-09
-6.18054e-08
1.00185e-08
-6.47706e-08
1.00429e-08
-6.77373e-08
1.0049e-08
-7.07001e-08
1.00371e-08
-7.36541e-08
1.00075e-08
-7.65941e-08
9.96063e-09
-7.95151e-08
9.89685e-09
-8.24123e-08
9.81651e-09
-8.52809e-08
9.72e-09
-8.81163e-08
9.60771e-09
-9.0914e-08
9.48004e-09
-9.36695e-08
9.33738e-09
-9.63786e-08
9.18015e-09
-9.9037e-08
9.00875e-09
-1.01641e-07
8.8236e-09
-1.04186e-07
8.62513e-09
-1.06669e-07
8.41374e-09
-1.09085e-07
8.18988e-09
-1.11432e-07
7.95397e-09
-1.13706e-07
7.70645e-09
-1.15904e-07
7.44774e-09
-1.18022e-07
7.17829e-09
-1.20057e-07
6.89854e-09
-1.22007e-07
6.60893e-09
-1.23869e-07
6.30991e-09
-1.25639e-07
6.00193e-09
-1.27316e-07
5.68545e-09
-1.28898e-07
5.36091e-09
-1.30381e-07
5.02877e-09
-1.31764e-07
4.68951e-09
-1.33045e-07
4.34358e-09
-1.34222e-07
3.99144e-09
-1.35293e-07
3.63358e-09
-1.36257e-07
3.27047e-09
-1.37112e-07
2.90258e-09
-1.37858e-07
2.53041e-09
-1.38492e-07
2.15442e-09
-1.39015e-07
1.77513e-09
-1.39424e-07
1.39301e-09
-1.3972e-07
1.00857e-09
-1.39903e-07
6.22311e-10
-1.3997e-07
2.34741e-10
-1.39924e-07
-1.53632e-10
-1.39762e-07
-5.4229e-10
-1.39486e-07
-9.30717e-10
-1.39096e-07
-1.31839e-09
-1.38591e-07
-1.70478e-09
-1.37973e-07
-2.08935e-09
-1.37243e-07
-2.47158e-09
-1.364e-07
-2.85092e-09
-1.35447e-07
-3.22684e-09
-1.34384e-07
-3.59879e-09
-1.33212e-07
-3.96622e-09
-1.31934e-07
-4.32858e-09
-1.30551e-07
-4.68532e-09
-1.29064e-07
-5.03589e-09
-1.27476e-07
-5.37973e-09
-1.25789e-07
-5.71629e-09
-1.24005e-07
-6.04502e-09
-1.22127e-07
-6.36535e-09
-1.20157e-07
-6.67673e-09
-1.18098e-07
-6.9786e-09
-1.15954e-07
-7.27043e-09
-1.13726e-07
-7.55165e-09
-1.11419e-07
-7.82171e-09
-1.09036e-07
-8.08009e-09
-1.0658e-07
-8.32624e-09
-1.04056e-07
-8.55963e-09
-1.01467e-07
-8.77973e-09
-9.88171e-08
-8.98603e-09
-9.61108e-08
-9.17802e-09
-9.33523e-08
-9.3552e-09
-9.05462e-08
-9.51708e-09
-8.7697e-08
-9.66318e-09
-8.48096e-08
-9.79303e-09
-8.18888e-08
-9.90619e-09
-7.89396e-08
-1.00022e-08
-7.59671e-08
-1.00807e-08
-7.29767e-08
-1.01412e-08
-6.99737e-08
-1.01834e-08
-6.69635e-08
-1.02068e-08
-6.39516e-08
-1.02112e-08
-6.09439e-08
-1.01963e-08
-5.79458e-08
-1.01617e-08
-5.49633e-08
-1.01071e-08
-5.20022e-08
-1.00324e-08
-4.90684e-08
-9.93735e-09
-4.61678e-08
-9.82173e-09
-4.33065e-08
-9.68545e-09
-4.04903e-08
-9.52839e-09
-3.77253e-08
-9.35052e-09
-3.50175e-08
-9.15183e-09
-3.23728e-08
-8.93236e-09
-2.97972e-08
-8.69224e-09
-2.72964e-08
-8.43163e-09
-2.48761e-08
-8.15076e-09
-2.25421e-08
-7.84997e-09
-2.02998e-08
-7.52967e-09
-1.81546e-08
-7.19036e-09
-1.61115e-08
-6.83268e-09
-1.41754e-08
-6.45737e-09
-1.23508e-08
-6.06537e-09
-1.06421e-08
-5.65774e-09
-9.05297e-09
-5.23578e-09
-7.58684e-09
-4.80103e-09
-6.24651e-09
-4.35531e-09
-5.03414e-09
-3.90076e-09
-3.95117e-09
-3.43994e-09
-2.99817e-09
-2.9759e-09
-2.17471e-09
-2.51223e-09
-1.4792e-09
-2.05325e-09
-9.08722e-10
-1.60409e-09
-4.58817e-10
-1.17089e-09
-1.23259e-10
-7.60956e-10
1.06185e-10
-3.8305e-10
2.40015e-10
-4.75831e-11
2.91286e-10
2.33117e-10
2.75936e-10
4.44558e-10
2.13224e-10
5.69883e-10
1.2633e-10
5.89821e-10
4.33896e-11
4.82672e-10
2.22667e-10
2.99228e-11
-2.48641e-10
7.64641e-11
-5.0921e-10
1.0536e-10
-5.77949e-10
8.88922e-11
-4.89616e-10
4.15704e-12
-2.72408e-10
-1.67812e-10
4.92291e-11
-4.42624e-10
4.54194e-10
-8.32957e-10
9.24462e-10
-1.3489e-09
1.44471e-09
-1.99823e-09
2.00199e-09
-2.78667e-09
2.58536e-09
-3.71815e-09
3.18565e-09
-4.79497e-09
3.79515e-09
-6.01807e-09
4.40741e-09
-7.38716e-09
5.01703e-09
-8.9009e-09
5.61949e-09
-1.05571e-08
6.21101e-09
-1.23526e-08
6.78843e-09
-1.4284e-08
7.34915e-09
-1.63468e-08
7.89096e-09
-1.85363e-08
8.41207e-09
-2.08475e-08
8.91099e-09
-2.32749e-08
9.3865e-09
-2.58128e-08
9.83763e-09
-2.8455e-08
1.02636e-08
-3.11956e-08
1.06638e-08
-3.40282e-08
1.10377e-08
-3.69463e-08
1.13851e-08
-3.99435e-08
1.17056e-08
-4.30131e-08
1.19993e-08
-4.61486e-08
1.22659e-08
-4.93433e-08
1.25057e-08
-5.25906e-08
1.27186e-08
-5.5884e-08
1.29048e-08
-5.92168e-08
1.30646e-08
-6.25825e-08
1.31982e-08
-6.59748e-08
1.33058e-08
-6.9387e-08
1.33878e-08
-7.28131e-08
1.34446e-08
-7.62466e-08
1.34765e-08
-7.96815e-08
1.34839e-08
-8.31118e-08
1.34673e-08
-8.65315e-08
1.34272e-08
-8.99347e-08
1.33639e-08
-9.33157e-08
1.32779e-08
-9.66691e-08
1.31698e-08
-9.99892e-08
1.30401e-08
-1.03271e-07
1.28892e-08
-1.06508e-07
1.27178e-08
-1.09697e-07
1.25262e-08
-1.12832e-07
1.23151e-08
-1.15909e-07
1.20851e-08
-1.18922e-07
1.18366e-08
-1.21867e-07
1.15702e-08
-1.24739e-07
1.12865e-08
-1.27536e-07
1.09861e-08
-1.30251e-07
1.06696e-08
-1.32882e-07
1.03374e-08
-1.35425e-07
9.99025e-09
-1.37875e-07
9.62868e-09
-1.4023e-07
9.25329e-09
-1.42486e-07
8.86467e-09
-1.44639e-07
8.46343e-09
-1.46687e-07
8.05017e-09
-1.48627e-07
7.62549e-09
-1.50457e-07
7.19001e-09
-1.52172e-07
6.74434e-09
-1.53772e-07
6.28911e-09
-1.55253e-07
5.82493e-09
-1.56614e-07
5.35244e-09
-1.57853e-07
4.87228e-09
-1.58967e-07
4.38507e-09
-1.59956e-07
3.89146e-09
-1.60818e-07
3.39211e-09
-1.61551e-07
2.88767e-09
-1.62155e-07
2.37879e-09
-1.62628e-07
1.86614e-09
-1.6297e-07
1.35039e-09
-1.6318e-07
8.3221e-10
-1.63257e-07
3.12291e-10
-1.63202e-07
-2.08686e-10
-1.63014e-07
-7.3003e-10
-1.62694e-07
-1.25104e-09
-1.62242e-07
-1.77102e-09
-1.61657e-07
-2.28926e-09
-1.60941e-07
-2.80505e-09
-1.60095e-07
-3.31767e-09
-1.5912e-07
-3.82639e-09
-1.58016e-07
-4.3305e-09
-1.56786e-07
-4.82926e-09
-1.5543e-07
-5.32194e-09
-1.53951e-07
-5.80781e-09
-1.5235e-07
-6.28612e-09
-1.5063e-07
-6.75613e-09
-1.48792e-07
-7.21711e-09
-1.4684e-07
-7.6683e-09
-1.44776e-07
-8.10897e-09
-1.42603e-07
-8.53837e-09
-1.40324e-07
-8.95576e-09
-1.37942e-07
-9.36039e-09
-1.35461e-07
-9.75154e-09
-1.32885e-07
-1.01285e-08
-1.30216e-07
-1.04904e-08
-1.27459e-07
-1.08367e-08
-1.24619e-07
-1.11667e-08
-1.21699e-07
-1.14795e-08
-1.18704e-07
-1.17745e-08
-1.15639e-07
-1.2051e-08
-1.12509e-07
-1.23084e-08
-1.09318e-07
-1.25459e-08
-1.06072e-07
-1.2763e-08
-1.02776e-07
-1.29589e-08
-9.94364e-08
-1.31331e-08
-9.60575e-08
-1.3285e-08
-9.26457e-08
-1.3414e-08
-8.92069e-08
-1.35195e-08
-8.5747e-08
-1.36011e-08
-8.22723e-08
-1.36581e-08
-7.8789e-08
-1.36902e-08
-7.53034e-08
-1.36968e-08
-7.18221e-08
-1.36776e-08
-6.83516e-08
-1.36322e-08
-6.48985e-08
-1.35602e-08
-6.14696e-08
-1.34614e-08
-5.80715e-08
-1.33354e-08
-5.47111e-08
-1.31821e-08
-5.13952e-08
-1.30013e-08
-4.81306e-08
-1.2793e-08
-4.49242e-08
-1.25569e-08
-4.17827e-08
-1.22933e-08
-3.8713e-08
-1.20021e-08
-3.57216e-08
-1.16836e-08
-3.28152e-08
-1.1338e-08
-3.00004e-08
-1.09656e-08
-2.72834e-08
-1.0567e-08
-2.46704e-08
-1.01426e-08
-2.21675e-08
-9.69331e-09
-1.97803e-08
-9.2199e-09
-1.75142e-08
-8.72344e-09
-1.53744e-08
-8.20519e-09
-1.33655e-08
-7.66664e-09
-1.14917e-08
-7.10954e-09
-9.75678e-09
-6.53597e-09
-8.16372e-09
-5.94836e-09
-6.71489e-09
-5.34959e-09
-5.4118e-09
-4.74304e-09
-4.25501e-09
-4.13268e-09
-3.24403e-09
-3.52322e-09
-2.3771e-09
-2.92018e-09
-1.65107e-09
-2.33012e-09
-1.0612e-09
-1.76075e-09
-6.00948e-10
-1.22121e-09
-2.61755e-10
-7.22247e-10
-3.28078e-11
-2.7653e-10
9.92223e-11
1.01091e-10
1.50497e-10
3.93291e-10
1.40425e-10
5.79959e-10
9.22499e-11
6.37994e-10
3.39442e-11
5.40977e-10
2.56612e-10
1.72086e-11
-2.65851e-10
3.04645e-11
-5.22467e-10
8.02594e-12
-5.5551e-10
-7.64754e-11
-4.05112e-10
-2.45134e-10
-1.03746e-10
-5.16407e-10
3.20505e-10
-9.05589e-10
8.43377e-10
-1.42518e-09
1.44406e-09
-2.0852e-09
2.10473e-09
-2.8934e-09
2.81019e-09
-3.85555e-09
3.54751e-09
-4.97558e-09
4.30569e-09
-6.25585e-09
5.07542e-09
-7.69727e-09
5.84883e-09
-9.2995e-09
6.61926e-09
-1.10611e-08
7.38108e-09
-1.29797e-08
8.12957e-09
-1.5052e-08
8.86073e-09
-1.7274e-08
9.57121e-09
-1.96413e-08
1.02582e-08
-2.21486e-08
1.09194e-08
-2.47904e-08
1.15528e-08
-2.75608e-08
1.21569e-08
-3.04534e-08
1.27302e-08
-3.34617e-08
1.32719e-08
-3.65789e-08
1.3781e-08
-3.97981e-08
1.42569e-08
-4.31122e-08
1.46992e-08
-4.6514e-08
1.51074e-08
-4.99962e-08
1.54815e-08
-5.35515e-08
1.58212e-08
-5.71725e-08
1.61267e-08
-6.08519e-08
1.6398e-08
-6.45822e-08
1.66352e-08
-6.83563e-08
1.68387e-08
-7.21667e-08
1.70086e-08
-7.60064e-08
1.71454e-08
-7.98681e-08
1.72495e-08
-8.37447e-08
1.73212e-08
-8.76293e-08
1.73611e-08
-9.1515e-08
1.73696e-08
-9.53949e-08
1.73473e-08
-9.92626e-08
1.72948e-08
-1.03111e-07
1.72126e-08
-1.06935e-07
1.71013e-08
-1.10726e-07
1.69616e-08
-1.1448e-07
1.67941e-08
-1.18191e-07
1.65994e-08
-1.21851e-07