/*--------------------------------*- C++ -*----------------------------------*\
  =========                 |
  \\      /  F ield         | OpenFOAM: The Open Source CFD Toolbox
   \\    /   O peration     | Website:  https://openfoam.org
    \\  /    A nd           | Version:  7
     \\/     M anipulation  |
\*---------------------------------------------------------------------------*/
FoamFile
{
    version     2.0;
    format      ascii;
    class       volVectorField;
    location    "0.325";
    object      U;
}
// * * * * * * * * * * * * * * * * * * * * * * * * * * * * * * * * * * * * * //

dimensions      [0 1 -1 0 0 0 0];

internalField   nonuniform List<vector> 
25600
(
(1.63639e-07 -2.2129e-07 0)
(2.81772e-06 -1.80061e-06 0)
(9.06876e-06 -2.83625e-06 0)
(1.69234e-05 -3.20892e-06 0)
(2.48823e-05 -3.12378e-06 0)
(3.19985e-05 -2.74503e-06 0)
(3.76183e-05 -2.1801e-06 0)
(4.12922e-05 -1.49979e-06 0)
(4.27217e-05 -7.50008e-07 0)
(4.1714e-05 3.89647e-08 0)
(3.81516e-05 8.46445e-07 0)
(3.19716e-05 1.65825e-06 0)
(2.31527e-05 2.46443e-06 0)
(1.17045e-05 3.25772e-06 0)
(-2.34015e-06 4.03275e-06 0)
(-1.893e-05 4.78557e-06 0)
(-3.79996e-05 5.51322e-06 0)
(-5.94726e-05 6.2135e-06 0)
(-8.32643e-05 6.88481e-06 0)
(-0.000109283 7.52594e-06 0)
(-0.000137433 8.136e-06 0)
(-0.000167614 8.71435e-06 0)
(-0.000199722 9.26064e-06 0)
(-0.000233652 9.77467e-06 0)
(-0.000269297 1.02564e-05 0)
(-0.000306549 1.07058e-05 0)
(-0.000345301 1.11232e-05 0)
(-0.000385445 1.15086e-05 0)
(-0.000426872 1.18624e-05 0)
(-0.000469475 1.21849e-05 0)
(-0.000513148 1.24764e-05 0)
(-0.000557786 1.27373e-05 0)
(-0.000603283 1.29682e-05 0)
(-0.000649537 1.31696e-05 0)
(-0.000696445 1.33418e-05 0)
(-0.000743908 1.34854e-05 0)
(-0.000791826 1.3601e-05 0)
(-0.000840103 1.3689e-05 0)
(-0.000888644 1.37501e-05 0)
(-0.000937354 1.37848e-05 0)
(-0.000986142 1.37938e-05 0)
(-0.00103492 1.37774e-05 0)
(-0.0010836 1.37365e-05 0)
(-0.00113209 1.36715e-05 0)
(-0.00118031 1.3583e-05 0)
(-0.00122818 1.34716e-05 0)
(-0.00127562 1.33379e-05 0)
(-0.00132256 1.31826e-05 0)
(-0.0013689 1.30061e-05 0)
(-0.00141459 1.28091e-05 0)
(-0.00145955 1.25923e-05 0)
(-0.00150371 1.23561e-05 0)
(-0.001547 1.21012e-05 0)
(-0.00158936 1.18282e-05 0)
(-0.00163072 1.15377e-05 0)
(-0.00167103 1.12303e-05 0)
(-0.00171022 1.09066e-05 0)
(-0.00174823 1.05672e-05 0)
(-0.00178502 1.02126e-05 0)
(-0.00182053 9.84345e-06 0)
(-0.0018547 9.46041e-06 0)
(-0.0018875 9.06404e-06 0)
(-0.00191886 8.65495e-06 0)
(-0.00194876 8.23372e-06 0)
(-0.00197714 7.80098e-06 0)
(-0.00200397 7.35733e-06 0)
(-0.00202921 6.90338e-06 0)
(-0.00205283 6.43975e-06 0)
(-0.00207478 5.96704e-06 0)
(-0.00209504 5.48587e-06 0)
(-0.00211359 4.99689e-06 0)
(-0.00213038 4.50073e-06 0)
(-0.00214541 3.998e-06 0)
(-0.00215864 3.48936e-06 0)
(-0.00217006 2.97542e-06 0)
(-0.00217965 2.45686e-06 0)
(-0.0021874 1.93434e-06 0)
(-0.00219329 1.4085e-06 0)
(-0.00219731 8.80039e-07 0)
(-0.00219945 3.49611e-07 0)
(-0.00219972 -1.82097e-07 0)
(-0.0021981 -7.14396e-07 0)
(-0.00219459 -1.24659e-06 0)
(-0.0021892 -1.77797e-06 0)
(-0.00218193 -2.30782e-06 0)
(-0.00217278 -2.83544e-06 0)
(-0.00216178 -3.3601e-06 0)
(-0.00214892 -3.88108e-06 0)
(-0.00213423 -4.39764e-06 0)
(-0.00211772 -4.90904e-06 0)
(-0.00209942 -5.41454e-06 0)
(-0.00207933 -5.91336e-06 0)
(-0.0020575 -6.40476e-06 0)
(-0.00203394 -6.88797e-06 0)
(-0.00200869 -7.36223e-06 0)
(-0.00198178 -7.82678e-06 0)
(-0.00195326 -8.28083e-06 0)
(-0.00192314 -8.72361e-06 0)
(-0.00189149 -9.15433e-06 0)
(-0.00185833 -9.57222e-06 0)
(-0.00182373 -9.97651e-06 0)
(-0.00178773 -1.03664e-05 0)
(-0.00175038 -1.07412e-05 0)
(-0.00171173 -1.11e-05 0)
(-0.00167185 -1.14421e-05 0)
(-0.0016308 -1.17668e-05 0)
(-0.00158863 -1.20732e-05 0)
(-0.00154542 -1.23607e-05 0)
(-0.00150123 -1.26284e-05 0)
(-0.00145614 -1.28757e-05 0)
(-0.00141022 -1.31018e-05 0)
(-0.00136353 -1.33059e-05 0)
(-0.00131618 -1.34875e-05 0)
(-0.00126822 -1.36458e-05 0)
(-0.00121975 -1.37801e-05 0)
(-0.00117086 -1.38898e-05 0)
(-0.00112162 -1.39742e-05 0)
(-0.00107214 -1.40328e-05 0)
(-0.00102249 -1.40648e-05 0)
(-0.000972783 -1.40698e-05 0)
(-0.000923105 -1.40472e-05 0)
(-0.000873557 -1.39964e-05 0)
(-0.000824237 -1.39169e-05 0)
(-0.000775245 -1.38084e-05 0)
(-0.000726684 -1.36702e-05 0)
(-0.000678658 -1.35021e-05 0)
(-0.000631272 -1.33036e-05 0)
(-0.00058463 -1.30745e-05 0)
(-0.00053884 -1.28143e-05 0)
(-0.000494009 -1.25229e-05 0)
(-0.000450244 -1.22e-05 0)
(-0.000407654 -1.18455e-05 0)
(-0.000366348 -1.14593e-05 0)
(-0.000326432 -1.10413e-05 0)
(-0.000288014 -1.05916e-05 0)
(-0.000251202 -1.01103e-05 0)
(-0.0002161 -9.59754e-06 0)
(-0.000182814 -9.05373e-06 0)
(-0.000151443 -8.47926e-06 0)
(-0.000122089 -7.87472e-06 0)
(-9.48457e-05 -7.24091e-06 0)
(-6.9806e-05 -6.57883e-06 0)
(-4.70562e-05 -5.88974e-06 0)
(-2.66763e-05 -5.17526e-06 0)
(-8.73848e-06 -4.43744e-06 0)
(6.69486e-06 -3.67893e-06 0)
(1.95736e-05 -2.90309e-06 0)
(2.98628e-05 -2.11433e-06 0)
(3.7547e-05 -1.31848e-06 0)
(4.26353e-05 -5.23261e-07 0)
(4.51688e-05 2.60966e-07 0)
(4.52307e-05 1.01967e-06 0)
(4.29596e-05 1.73192e-06 0)
(3.85699e-05 2.36688e-06 0)
(3.23814e-05 2.87822e-06 0)
(2.48617e-05 3.19584e-06 0)
(1.66765e-05 3.21519e-06 0)
(8.77768e-06 2.78014e-06 0)
(2.64178e-06 1.69805e-06 0)
(1.21667e-07 1.23387e-07 0)
(1.77124e-06 -2.89756e-06 0)
(9.36975e-06 -9.42423e-06 0)
(2.31245e-05 -1.34248e-05 0)
(3.93629e-05 -1.4732e-05 0)
(5.52436e-05 -1.39636e-05 0)
(6.87705e-05 -1.16932e-05 0)
(7.84042e-05 -8.36165e-06 0)
(8.29883e-05 -4.29735e-06 0)
(8.16921e-05 2.59906e-07 0)
(7.39377e-05 5.13545e-06 0)
(5.93416e-05 1.02003e-05 0)
(3.76711e-05 1.53587e-05 0)
(8.811e-06 2.05383e-05 0)
(-2.72623e-05 2.56838e-05 0)
(-7.05008e-05 3.07527e-05 0)
(-0.000120799 3.5712e-05 0)
(-0.000178008 4.0536e-05 0)
(-0.000241941 4.52048e-05 0)
(-0.000312383 4.97026e-05 0)
(-0.000389098 5.40173e-05 0)
(-0.000471831 5.81393e-05 0)
(-0.000560313 6.20615e-05 0)
(-0.000654265 6.57787e-05 0)
(-0.000753397 6.9287e-05 0)
(-0.000857416 7.25839e-05 0)
(-0.000966023 7.56679e-05 0)
(-0.00107892 7.85382e-05 0)
(-0.00119579 8.11949e-05 0)
(-0.00131635 8.36386e-05 0)
(-0.00144028 8.58703e-05 0)
(-0.00156729 8.78917e-05 0)
(-0.00169707 8.97048e-05 0)
(-0.00182933 9.13119e-05 0)
(-0.00196377 9.27155e-05 0)
(-0.0021001 9.39185e-05 0)
(-0.00223803 9.49238e-05 0)
(-0.00237728 9.57346e-05 0)
(-0.00251756 9.63542e-05 0)
(-0.00265862 9.67862e-05 0)
(-0.00280017 9.7034e-05 0)
(-0.00294194 9.71015e-05 0)
(-0.00308369 9.69923e-05 0)
(-0.00322516 9.67102e-05 0)
(-0.00336609 9.62592e-05 0)
(-0.00350624 9.56431e-05 0)
(-0.00364538 9.48659e-05 0)
(-0.00378327 9.39316e-05 0)
(-0.00391969 9.28443e-05 0)
(-0.00405441 9.1608e-05 0)
(-0.00418723 9.02269e-05 0)
(-0.00431793 8.8705e-05 0)
(-0.00444631 8.70465e-05 0)
(-0.00457217 8.52556e-05 0)
(-0.00469532 8.33364e-05 0)
(-0.00481559 8.12931e-05 0)
(-0.00493277 7.91298e-05 0)
(-0.00504672 7.68508e-05 0)
(-0.00515725 7.44602e-05 0)
(-0.00526422 7.19623e-05 0)
(-0.00536746 6.93613e-05 0)
(-0.00546682 6.66615e-05 0)
(-0.00556217 6.38671e-05 0)
(-0.00565337 6.09824e-05 0)
(-0.00574029 5.80117e-05 0)
(-0.00582281 5.49593e-05 0)
(-0.00590081 5.18296e-05 0)
(-0.00597418 4.86269e-05 0)
(-0.00604282 4.53556e-05 0)
(-0.00610663 4.202e-05 0)
(-0.00616552 3.86248e-05 0)
(-0.0062194 3.51742e-05 0)
(-0.00626821 3.16729e-05 0)
(-0.00631186 2.81253e-05 0)
(-0.00635029 2.45361e-05 0)
(-0.00638345 2.09098e-05 0)
(-0.00641128 1.72511e-05 0)
(-0.00643375 1.35647e-05 0)
(-0.00645081 9.85531e-06 0)
(-0.00646243 6.12772e-06 0)
(-0.00646859 2.38676e-06 0)
(-0.00646929 -1.36273e-06 0)
(-0.0064645 -5.11584e-06 0)
(-0.00645422 -8.86759e-06 0)
(-0.00643847 -1.2613e-05 0)
(-0.00641725 -1.6347e-05 0)
(-0.00639059 -2.00645e-05 0)
(-0.00635852 -2.37605e-05 0)
(-0.00632107 -2.74297e-05 0)
(-0.00627828 -3.10669e-05 0)
(-0.0062302 -3.46669e-05 0)
(-0.0061769 -3.82244e-05 0)
(-0.00611845 -4.1734e-05 0)
(-0.0060549 -4.51906e-05 0)
(-0.00598636 -4.85885e-05 0)
(-0.0059129 -5.19226e-05 0)
(-0.00583463 -5.51873e-05 0)
(-0.00575165 -5.83773e-05 0)
(-0.00566407 -6.1487e-05 0)
(-0.00557202 -6.45111e-05 0)
(-0.00547563 -6.74441e-05 0)
(-0.00537502 -7.02806e-05 0)
(-0.00527036 -7.30151e-05 0)
(-0.00516179 -7.56424e-05 0)
(-0.00504948 -7.81569e-05 0)
(-0.00493358 -8.05534e-05 0)
(-0.00481429 -8.28265e-05 0)
(-0.00469177 -8.49709e-05 0)
(-0.00456623 -8.69816e-05 0)
(-0.00443787 -8.88533e-05 0)
(-0.00430688 -9.05811e-05 0)
(-0.00417349 -9.21598e-05 0)
(-0.00403791 -9.35846e-05 0)
(-0.00390038 -9.48508e-05 0)
(-0.00376112 -9.59536e-05 0)
(-0.00362038 -9.68886e-05 0)
(-0.0034784 -9.76512e-05 0)
(-0.00333545 -9.82372e-05 0)
(-0.00319177 -9.86425e-05 0)
(-0.00304764 -9.88631e-05 0)
(-0.00290332 -9.88952e-05 0)
(-0.0027591 -9.87351e-05 0)
(-0.00261524 -9.83796e-05 0)
(-0.00247205 -9.78253e-05 0)
(-0.0023298 -9.70694e-05 0)
(-0.0021888 -9.61092e-05 0)
(-0.00204933 -9.49423e-05 0)
(-0.0019117 -9.35664e-05 0)
(-0.00177622 -9.19799e-05 0)
(-0.00164318 -9.01811e-05 0)
(-0.00151288 -8.8169e-05 0)
(-0.00138565 -8.59429e-05 0)
(-0.00126178 -8.35025e-05 0)
(-0.00114158 -8.08481e-05 0)
(-0.00102536 -7.79804e-05 0)
(-0.000913414 -7.49009e-05 0)
(-0.000806044 -7.16116e-05 0)
(-0.000703543 -6.81155e-05 0)
(-0.000606202 -6.44165e-05 0)
(-0.000514298 -6.05196e-05 0)
(-0.000428105 -5.64309e-05 0)
(-0.00034788 -5.21583e-05 0)
(-0.000273869 -4.77116e-05 0)
(-0.000206298 -4.31026e-05 0)
(-0.000145375 -3.83461e-05 0)
(-9.12775e-05 -3.34602e-05 0)
(-4.41552e-05 -2.84676e-05 0)
(-4.11679e-06 -2.33963e-05 0)
(2.87767e-05 -1.82817e-05 0)
(5.45235e-05 -1.31685e-05 0)
(7.31967e-05 -8.11406e-06 0)
(8.49626e-05 -3.19222e-06 0)
(9.01055e-05 1.50011e-06 0)
(8.90602e-05 5.83387e-06 0)
(8.24545e-05 9.63516e-06 0)
(7.11656e-05 1.26673e-05 0)
(5.63861e-05 1.46093e-05 0)
(3.96743e-05 1.50381e-05 0)
(2.30138e-05 1.34159e-05 0)
(9.18038e-06 9.18679e-06 0)
(1.69402e-06 2.64451e-06 0)
(2.82166e-06 -9.09881e-06 0)
(1.33974e-05 -2.31726e-05 0)
(3.10545e-05 -3.10767e-05 0)
(5.0821e-05 -3.31356e-05 0)
(6.9094e-05 -3.04519e-05 0)
(8.33114e-05 -2.412e-05 0)
(9.13903e-05 -1.50675e-05 0)
(9.16902e-05 -4.03877e-06 0)
(8.29794e-05 8.38592e-06 0)
(6.43632e-05 2.17589e-05 0)
(3.52198e-05 3.57355e-05 0)
(-4.85206e-06 5.00495e-05 0)
(-5.60757e-05 6.44936e-05 0)
(-0.000118532 7.89056e-05 0)
(-0.000192185 9.31579e-05 0)
(-0.000276907 0.000107149 0)
(-0.000372497 0.0001208 0)
(-0.000478688 0.000134047 0)
(-0.00059517 0.00014684 0)
(-0.000721589 0.000159137 0)
(-0.00085756 0.000170908 0)
(-0.00100267 0.000182129 0)
(-0.0011565 0.00019278 0)
(-0.00131859 0.000202847 0)
(-0.00148849 0.00021232 0)
(-0.00166572 0.000221192 0)
(-0.00184983 0.000229458 0)
(-0.00204031 0.000237118 0)
(-0.0022367 0.000244169 0)
(-0.00243852 0.000250616 0)
(-0.00264527 0.00025646 0)
(-0.00285649 0.000261706 0)
(-0.0030717 0.000266359 0)
(-0.00329042 0.000270426 0)
(-0.00351218 0.000273915 0)
(-0.00373653 0.000276832 0)
(-0.00396301 0.000279187 0)
(-0.00419116 0.000280988 0)
(-0.00442055 0.000282245 0)
(-0.00465073 0.000282968 0)
(-0.00488129 0.000283167 0)
(-0.00511179 0.000282853 0)
(-0.00534183 0.000282035 0)
(-0.005571 0.000280726 0)
(-0.00579892 0.000278936 0)
(-0.00602518 0.000276676 0)
(-0.00624942 0.000273959 0)
(-0.00647127 0.000270795 0)
(-0.00669036 0.000267196 0)
(-0.00690636 0.000263174 0)
(-0.00711891 0.000258741 0)
(-0.0073277 0.000253909 0)
(-0.00753239 0.00024869 0)
(-0.00773268 0.000243096 0)
(-0.00792827 0.000237139 0)
(-0.00811886 0.000230832 0)
(-0.00830418 0.000224185 0)
(-0.00848395 0.000217213 0)
(-0.00865792 0.000209926 0)
(-0.00882582 0.000202338 0)
(-0.00898743 0.00019446 0)
(-0.0091425 0.000186306 0)
(-0.00929082 0.000177888 0)
(-0.00943217 0.000169218 0)
(-0.00956637 0.00016031 0)
(-0.0096932 0.000151175 0)
(-0.00981251 0.000141826 0)
(-0.00992412 0.000132277 0)
(-0.0100279 0.000122541 0)
(-0.0101236 0.00011263 0)
(-0.0102112 0.000102557 0)
(-0.0102905 9.23363e-05 0)
(-0.0103615 8.19807e-05 0)
(-0.0104239 7.15036e-05 0)
(-0.0104778 6.09187e-05 0)
(-0.010523 5.02394e-05 0)
(-0.0105594 3.94797e-05 0)
(-0.0105871 2.86534e-05 0)
(-0.0106059 1.77746e-05 0)
(-0.0106159 6.85731e-06 0)
(-0.0106169 -4.08415e-06 0)
(-0.010609 -1.50354e-05 0)
(-0.0105922 -2.59819e-05 0)
(-0.0105665 -3.6909e-05 0)
(-0.0105319 -4.7802e-05 0)
(-0.0104885 -5.86459e-05 0)
(-0.0104362 -6.94259e-05 0)
(-0.0103752 -8.01267e-05 0)
(-0.0103055 -9.07332e-05 0)
(-0.0102273 -0.00010123 0)
(-0.0101405 -0.000111602 0)
(-0.0100453 -0.000121833 0)
(-0.00994194 -0.000131907 0)
(-0.0098304 -0.00014181 0)
(-0.00971088 -0.000151526 0)
(-0.00958354 -0.000161038 0)
(-0.00944855 -0.000170331 0)
(-0.0093061 -0.000179389 0)
(-0.00915638 -0.000188196 0)
(-0.00899961 -0.000196736 0)
(-0.00883601 -0.000204995 0)
(-0.00866582 -0.000212955 0)
(-0.00848929 -0.000220601 0)
(-0.00830667 -0.000227918 0)
(-0.00811826 -0.00023489 0)
(-0.00792432 -0.000241503 0)
(-0.00772516 -0.000247739 0)
(-0.0075211 -0.000253586 0)
(-0.00731245 -0.000259027 0)
(-0.00709956 -0.000264049 0)
(-0.00688276 -0.000268637 0)
(-0.00666243 -0.000272776 0)
(-0.00643891 -0.000276454 0)
(-0.00621261 -0.000279657 0)
(-0.0059839 -0.000282371 0)
(-0.00575319 -0.000284585 0)
(-0.0055209 -0.000286285 0)
(-0.00528743 -0.000287461 0)
(-0.00505322 -0.000288101 0)
(-0.0048187 -0.000288194 0)
(-0.00458433 -0.000287731 0)
(-0.00435056 -0.000286702 0)
(-0.00411784 -0.000285097 0)
(-0.00388665 -0.00028291 0)
(-0.00365745 -0.000280132 0)
(-0.00343073 -0.000276758 0)
(-0.00320696 -0.000272782 0)
(-0.00298662 -0.000268199 0)
(-0.00277022 -0.000263006 0)
(-0.00255824 -0.000257201 0)
(-0.00235116 -0.000250782 0)
(-0.00214947 -0.000243751 0)
(-0.00195367 -0.000236108 0)
(-0.00176423 -0.000227858 0)
(-0.00158164 -0.000219006 0)
(-0.00140636 -0.000209561 0)
(-0.00123886 -0.000199533 0)
(-0.00107959 -0.000188935 0)
(-0.00092898 -0.000177784 0)
(-0.000787457 -0.000166102 0)
(-0.000655416 -0.000153913 0)
(-0.00053323 -0.000141251 0)
(-0.000421241 -0.000128152 0)
(-0.000319752 -0.000114664 0)
(-0.000229024 -0.000100844 0)
(-0.000149262 -8.6763e-05 0)
(-8.06068e-05 -7.25062e-05 0)
(-2.31187e-05 -5.81807e-05 0)
(2.32374e-05 -4.39193e-05 0)
(5.86154e-05 -2.98886e-05 0)
(8.33144e-05 -1.62988e-05 0)
(9.78108e-05 -3.41779e-06 0)
(0.0001028 8.4117e-06 0)
(9.92466e-05 1.87488e-05 0)
(8.84435e-05 2.70264e-05 0)
(7.2078e-05 3.25243e-05 0)
(5.22556e-05 3.43588e-05 0)
(3.15236e-05 3.1513e-05 0)
(1.34152e-05 2.30165e-05 0)
(2.77621e-06 8.77517e-06 0)
(3.20378e-06 -1.69407e-05 0)
(1.47442e-05 -3.94224e-05 0)
(3.31985e-05 -5.08527e-05 0)
(5.27025e-05 -5.2604e-05 0)
(6.91506e-05 -4.64155e-05 0)
(7.96311e-05 -3.39613e-05 0)
(8.17311e-05 -1.67003e-05 0)
(7.35011e-05 4.15553e-06 0)
(5.34342e-05 2.76257e-05 0)
(2.04026e-05 5.29273e-05 0)
(-2.64033e-05 7.9439e-05 0)
(-8.75272e-05 0.000106667 0)
(-0.000163293 0.00013422 0)
(-0.00025384 0.000161784 0)
(-0.00035916 0.000189108 0)
(-0.00047912 0.000215993 0)
(-0.000613483 0.000242276 0)
(-0.00076193 0.000267827 0)
(-0.000924073 0.000292543 0)
(-0.00109947 0.000316339 0)
(-0.00128762 0.000339147 0)
(-0.001488 0.000360916 0)
(-0.00170006 0.000381603 0)
(-0.0019232 0.000401176 0)
(-0.00215683 0.000419612 0)
(-0.00240033 0.000436894 0)
(-0.00265306 0.000453009 0)
(-0.0029144 0.000467951 0)
(-0.0031837 0.000481718 0)
(-0.00346031 0.00049431 0)
(-0.0037436 0.000505733 0)
(-0.00403292 0.000515992 0)
(-0.00432763 0.000525096 0)
(-0.00462708 0.000533057 0)
(-0.00493066 0.000539888 0)
(-0.00523774 0.000545602 0)
(-0.00554769 0.000550215 0)
(-0.0058599 0.000553744 0)
(-0.00617378 0.000556207 0)
(-0.00648874 0.000557621 0)
(-0.00680418 0.000558007 0)
(-0.00711955 0.000557384 0)
(-0.00743427 0.000555773 0)
(-0.00774781 0.000553194 0)
(-0.00805961 0.00054967 0)
(-0.00836915 0.000545221 0)
(-0.00867593 0.000539871 0)
(-0.00897943 0.000533642 0)
(-0.00927916 0.000526555 0)
(-0.00957465 0.000518635 0)
(-0.00986544 0.000509905 0)
(-0.0101511 0.000500388 0)
(-0.0104311 0.000490107 0)
(-0.0107051 0.000479086 0)
(-0.0109727 0.000467348 0)
(-0.0112334 0.000454919 0)
(-0.011487 0.000441821 0)
(-0.0117329 0.000428079 0)
(-0.0119709 0.000413717 0)
(-0.0122006 0.00039876 0)
(-0.0124217 0.000383232 0)
(-0.0126338 0.000367158 0)
(-0.0128367 0.000350562 0)
(-0.01303 0.00033347 0)
(-0.0132136 0.000315906 0)
(-0.0133871 0.000297895 0)
(-0.0135503 0.000279463 0)
(-0.0137029 0.000260636 0)
(-0.0138448 0.000241438 0)
(-0.0139757 0.000221896 0)
(-0.0140955 0.000202036 0)
(-0.0142039 0.000181884 0)
(-0.0143009 0.000161466 0)
(-0.0143863 0.000140809 0)
(-0.0144599 0.00011994 0)
(-0.0145216 9.88851e-05 0)
(-0.0145714 7.76724e-05 0)
(-0.0146092 5.63291e-05 0)
(-0.0146348 3.4883e-05 0)
(-0.0146483 1.33621e-05 0)
(-0.0146496 -8.20549e-06 0)
(-0.0146387 -2.97913e-05 0)
(-0.0146156 -5.13666e-05 0)
(-0.0145803 -7.29024e-05 0)
(-0.0145329 -9.43697e-05 0)
(-0.0144734 -0.000115739 0)
(-0.0144018 -0.000136981 0)
(-0.0143182 -0.000158065 0)
(-0.0142228 -0.000178962 0)
(-0.0141156 -0.000199641 0)
(-0.0139968 -0.000220072 0)
(-0.0138666 -0.000240225 0)
(-0.0137251 -0.000260068 0)
(-0.0135724 -0.00027957 0)
(-0.0134088 -0.000298702 0)
(-0.0132346 -0.000317432 0)
(-0.0130499 -0.000335728 0)
(-0.012855 -0.00035356 0)
(-0.0126502 -0.000370897 0)
(-0.0124357 -0.000387707 0)
(-0.0122119 -0.00040396 0)
(-0.0119791 -0.000419624 0)
(-0.0117377 -0.00043467 0)
(-0.0114879 -0.000449066 0)
(-0.0112302 -0.000462782 0)
(-0.010965 -0.000475789 0)
(-0.0106927 -0.000488056 0)
(-0.0104137 -0.000499554 0)
(-0.0101284 -0.000510254 0)
(-0.00983727 -0.000520129 0)
(-0.00954085 -0.000529149 0)
(-0.00923959 -0.000537287 0)
(-0.00893401 -0.000544518 0)
(-0.00862461 -0.000550814 0)
(-0.00831192 -0.000556151 0)
(-0.0079965 -0.000560504 0)
(-0.00767891 -0.00056385 0)
(-0.00735971 -0.000566166 0)
(-0.00703949 -0.00056743 0)
(-0.00671884 -0.000567623 0)
(-0.00639837 -0.000566724 0)
(-0.0060787 -0.000564717 0)
(-0.00576044 -0.000561584 0)
(-0.00544423 -0.00055731 0)
(-0.00513072 -0.000551883 0)
(-0.00482054 -0.00054529 0)
(-0.00451435 -0.000537522 0)
(-0.0042128 -0.000528571 0)
(-0.00391655 -0.000518432 0)
(-0.00362625 -0.0005071 0)
(-0.00334257 -0.000494577 0)
(-0.00306616 -0.000480863 0)
(-0.00279767 -0.000465966 0)
(-0.00253775 -0.000449895 0)
(-0.00228704 -0.000432662 0)
(-0.00204616 -0.000414286 0)
(-0.00181572 -0.000394791 0)
(-0.00159632 -0.000374206 0)
(-0.00138853 -0.000352568 0)
(-0.00119291 -0.000329921 0)
(-0.00100995 -0.00030632 0)
(-0.000840159 -0.000281831 0)
(-0.000683953 -0.000256534 0)
(-0.00054172 -0.000230526 0)
(-0.000413779 -0.000203923 0)
(-0.000300374 -0.000176868 0)
(-0.000201659 -0.000149534 0)
(-0.000117683 -0.000122131 0)
(-4.83652e-05 -9.49182e-05 0)
(6.52807e-06 -6.82159e-05 0)
(4.74143e-05 -4.24201e-05 0)
(7.49312e-05 -1.80246e-05 0)
(8.99795e-05 4.35499e-06 0)
(9.37713e-05 2.39507e-05 0)
(8.78862e-05 3.9809e-05 0)
(7.43291e-05 5.07639e-05 0)
(5.55431e-05 5.54316e-05 0)
(3.44331e-05 5.22585e-05 0)
(1.50601e-05 3.96926e-05 0)
(3.21425e-06 1.66713e-05 0)
(3.13298e-06 -2.49177e-05 0)
(1.40397e-05 -5.5364e-05 0)
(3.06606e-05 -6.92008e-05 0)
(4.67562e-05 -6.90877e-05 0)
(5.79421e-05 -5.75385e-05 0)
(6.10868e-05 -3.68548e-05 0)
(5.35814e-05 -9.04421e-06 0)
(3.32904e-05 2.42001e-05 0)
(-1.46747e-06 6.14778e-05 0)
(-5.19771e-05 0.000101644 0)
(-0.000119183 0.000143769 0)
(-0.000203737 0.000187099 0)
(-0.000306042 0.000231022 0)
(-0.000426294 0.000275044 0)
(-0.000564507 0.000318762 0)
(-0.00072055 0.000361848 0)
(-0.000894165 0.000404038 0)
(-0.00108499 0.000445114 0)
(-0.00129258 0.0004849 0)
(-0.00151642 0.000523253 0)
(-0.00175592 0.000560058 0)
(-0.00201046 0.000595221 0)
(-0.00227936 0.00062867 0)
(-0.00256193 0.000660347 0)
(-0.00285743 0.000690207 0)
(-0.00316511 0.000718218 0)
(-0.00348422 0.000744356 0)
(-0.00381396 0.000768607 0)
(-0.00415356 0.000790963 0)
(-0.00450221 0.000811423 0)
(-0.00485914 0.000829989 0)
(-0.00522354 0.000846671 0)
(-0.00559463 0.000861481 0)
(-0.0059716 0.000874435 0)
(-0.00635369 0.00088555 0)
(-0.00674011 0.00089485 0)
(-0.00713009 0.000902356 0)
(-0.00752288 0.000908096 0)
(-0.00791773 0.000912097 0)
(-0.00831389 0.000914387 0)
(-0.00871064 0.000914997 0)
(-0.00910727 0.000913959 0)
(-0.00950307 0.000911305 0)
(-0.00989736 0.000907069 0)
(-0.0102895 0.000901285 0)
(-0.0106787 0.000893989 0)
(-0.0110645 0.000885216 0)
(-0.0114461 0.000875002 0)
(-0.011823 0.000863385 0)
(-0.0121946 0.000850401 0)
(-0.0125602 0.000836088 0)
(-0.0129194 0.000820485 0)
(-0.0132715 0.000803629 0)
(-0.013616 0.000785558 0)
(-0.0139524 0.000766313 0)
(-0.0142803 0.000745931 0)
(-0.0145991 0.000724453 0)
(-0.0149083 0.000701918 0)
(-0.0152075 0.000678365 0)
(-0.0154963 0.000653834 0)
(-0.0157742 0.000628367 0)
(-0.0160409 0.000602002 0)
(-0.016296 0.000574781 0)
(-0.0165391 0.000546745 0)
(-0.0167699 0.000517935 0)
(-0.016988 0.000488392 0)
(-0.0171931 0.000458158 0)
(-0.0173849 0.000427274 0)
(-0.0175633 0.000395783 0)
(-0.0177278 0.000363728 0)
(-0.0178783 0.00033115 0)
(-0.0180146 0.000298094 0)
(-0.0181364 0.000264602 0)
(-0.0182436 0.000230719 0)
(-0.0183361 0.000196488 0)
(-0.0184136 0.000161954 0)
(-0.0184761 0.000127162 0)
(-0.0185234 9.21565e-05 0)
(-0.0185556 5.69838e-05 0)
(-0.0185724 2.16897e-05 0)
(-0.0185739 -1.36795e-05 0)
(-0.0185601 -4.9077e-05 0)
(-0.018531 -8.44556e-05 0)
(-0.0184865 -0.000119768 0)
(-0.0184267 -0.000154966 0)
(-0.0183517 -0.000190001 0)
(-0.0182616 -0.000224825 0)
(-0.0181564 -0.000259389 0)
(-0.0180363 -0.000293644 0)
(-0.0179015 -0.00032754 0)
(-0.017752 -0.000361026 0)
(-0.0175882 -0.000394054 0)
(-0.0174102 -0.000426573 0)
(-0.0172182 -0.000458531 0)
(-0.0170125 -0.00048988 0)
(-0.0167933 -0.000520567 0)
(-0.0165611 -0.000550542 0)
(-0.016316 -0.000579754 0)
(-0.0160585 -0.000608152 0)
(-0.0157889 -0.000635687 0)
(-0.0155076 -0.000662306 0)
(-0.0152149 -0.000687959 0)
(-0.0149114 -0.000712598 0)
(-0.0145975 -0.000736171 0)
(-0.0142736 -0.000758629 0)
(-0.0139402 -0.000779924 0)
(-0.0135979 -0.000800007 0)
(-0.0132472 -0.00081883 0)
(-0.0128887 -0.000836347 0)
(-0.0125229 -0.000852511 0)
(-0.0121503 -0.000867276 0)
(-0.0117717 -0.0008806 0)
(-0.0113877 -0.000892437 0)
(-0.0109989 -0.000902748 0)
(-0.0106059 -0.000911489 0)
(-0.0102095 -0.000918623 0)
(-0.00981036 -0.000924111 0)
(-0.00940918 -0.000927917 0)
(-0.0090067 -0.000930007 0)
(-0.00860366 -0.000930348 0)
(-0.00820082 -0.00092891 0)
(-0.00779894 -0.000925664 0)
(-0.0073988 -0.000920585 0)
(-0.00700119 -0.000913648 0)
(-0.0066069 -0.000904834 0)
(-0.00621674 -0.000894125 0)
(-0.00583151 -0.000881507 0)
(-0.00545203 -0.000866968 0)
(-0.00507911 -0.0008505 0)
(-0.00471355 -0.000832102 0)
(-0.00435619 -0.000811775 0)
(-0.00400782 -0.000789525 0)
(-0.00366925 -0.000765364 0)
(-0.00334126 -0.00073931 0)
(-0.00302465 -0.000711389 0)
(-0.00272018 -0.000681634 0)
(-0.00242858 -0.000650086 0)
(-0.00215059 -0.000616799 0)
(-0.0018869 -0.000581835 0)
(-0.00163817 -0.000545274 0)
(-0.00140501 -0.00050721 0)
(-0.001188 -0.000467754 0)
(-0.000987644 -0.000427044 0)
(-0.000804389 -0.000385242 0)
(-0.0006386 -0.000342543 0)
(-0.000490548 -0.000299182 0)
(-0.000360395 -0.000255442 0)
(-0.000248171 -0.000211665 0)
(-0.000153755 -0.000168265 0)
(-7.68444e-05 -0.000125748 0)
(-1.6926e-05 -8.47269e-05 0)
(2.67608e-05 -4.5955e-05 0)
(5.52652e-05 -1.03508e-05 0)
(6.9969e-05 2.09649e-05 0)
(7.26377e-05 4.6634e-05 0)
(6.54732e-05 6.50317e-05 0)
(5.11258e-05 7.42566e-05 0)
(3.27362e-05 7.21639e-05 0)
(1.46816e-05 5.64696e-05 0)
(3.20281e-06 2.48715e-05 0)
(2.77205e-06 -3.2089e-05 0)
(1.18555e-05 -6.90388e-05 0)
(2.45335e-05 -8.36063e-05 0)
(3.46496e-05 -7.97287e-05 0)
(3.77573e-05 -6.07479e-05 0)
(3.06113e-05 -2.96213e-05 0)
(1.05044e-05 1.10867e-05 0)
(-2.47936e-05 5.91988e-05 0)
(-7.706e-05 0.00011289 0)
(-0.000147673 0.000170642 0)
(-0.000237662 0.0002312 0)
(-0.000347752 0.000293531 0)
(-0.000478402 0.000356782 0)
(-0.000629844 0.000420254 0)
(-0.000802114 0.000483371 0)
(-0.000995081 0.00054566 0)
(-0.00120847 0.000606728 0)
(-0.00144189 0.000666257 0)
(-0.00169484 0.000723983 0)
(-0.00196674 0.000779688 0)
(-0.00225694 0.000833197 0)
(-0.00256472 0.000884368 0)
(-0.00288931 0.000933084 0)
(-0.00322991 0.000979255 0)
(-0.00358568 0.00102281 0)
(-0.00395575 0.00106369 0)
(-0.00433923 0.00110187 0)
(-0.00473521 0.0011373 0)
(-0.00514278 0.00116999 0)
(-0.00556102 0.00119991 0)
(-0.00598898 0.00122707 0)
(-0.00642575 0.00125149 0)
(-0.00687038 0.00127317 0)
(-0.00732195 0.00129213 0)
(-0.00777954 0.00130841 0)
(-0.00824222 0.00132202 0)
(-0.00870909 0.001333 0)
(-0.00917926 0.00134139 0)
(-0.00965182 0.00134723 0)
(-0.0101259 0.00135055 0)
(-0.0106007 0.0013514 0)
(-0.0110752 0.00134983 0)
(-0.0115488 0.00134588 0)
(-0.0120205 0.0013396 0)
(-0.0124896 0.00133104 0)
(-0.0129552 0.00132025 0)
(-0.0134167 0.00130728 0)
(-0.0138732 0.00129219 0)
(-0.014324 0.00127502 0)
(-0.0147684 0.00125585 0)
(-0.0152058 0.0012347 0)
(-0.0156353 0.00121166 0)
(-0.0160565 0.00118676 0)
(-0.0164686 0.00116007 0)
(-0.0168709 0.00113165 0)
(-0.017263 0.00110154 0)
(-0.0176443 0.00106982 0)
(-0.0180141 0.00103653 0)
(-0.0183719 0.00100174 0)
(-0.0187173 0.000965508 0)
(-0.0190497 0.000927888 0)
(-0.0193686 0.000888943 0)
(-0.0196736 0.000848733 0)
(-0.0199643 0.000807317 0)
(-0.0202402 0.000764758 0)
(-0.020501 0.000721115 0)
(-0.0207462 0.000676452 0)
(-0.0209756 0.000630829 0)
(-0.0211888 0.000584309 0)
(-0.0213855 0.000536955 0)
(-0.0215654 0.000488831 0)
(-0.0217283 0.00044 0)
(-0.0218739 0.000390526 0)
(-0.022002 0.000340475 0)
(-0.0221124 0.000289911 0)
(-0.022205 0.000238901 0)
(-0.0222796 0.000187511 0)
(-0.0223361 0.000135808 0)
(-0.0223744 8.38588e-05 0)
(-0.0223944 3.17325e-05 0)
(-0.0223961 -2.05027e-05 0)
(-0.0223794 -7.27776e-05 0)
(-0.0223444 -0.000125022 0)
(-0.0222911 -0.000177167 0)
(-0.0222195 -0.00022914 0)
(-0.0221297 -0.000280871 0)
(-0.0220217 -0.000332287 0)
(-0.0218958 -0.000383317 0)
(-0.0217521 -0.000433887 0)
(-0.0215908 -0.000483924 0)
(-0.021412 -0.000533355 0)
(-0.0212159 -0.000582105 0)
(-0.021003 -0.000630101 0)
(-0.0207733 -0.000677268 0)
(-0.0205272 -0.000723531 0)
(-0.0202652 -0.000768816 0)
(-0.0199874 -0.000813047 0)
(-0.0196943 -0.00085615 0)
(-0.0193863 -0.00089805 0)
(-0.0190639 -0.000938672 0)
(-0.0187275 -0.000977942 0)
(-0.0183776 -0.00101579 0)
(-0.0180147 -0.00105213 0)
(-0.0176393 -0.0010869 0)
(-0.0172521 -0.00112003 0)
(-0.0168536 -0.00115144 0)
(-0.0164443 -0.00118106 0)
(-0.0160251 -0.00120882 0)
(-0.0155964 -0.00123465 0)
(-0.015159 -0.0012585 0)
(-0.0147137 -0.00128028 0)
(-0.0142611 -0.00129993 0)
(-0.013802 -0.0013174 0)
(-0.0133371 -0.00133262 0)
(-0.0128673 -0.00134552 0)
(-0.0123934 -0.00135607 0)
(-0.0119161 -0.00136419 0)
(-0.0114364 -0.00136984 0)
(-0.0109551 -0.00137296 0)
(-0.0104732 -0.00137352 0)
(-0.00999137 -0.00137146 0)
(-0.00951067 -0.00136675 0)
(-0.009032 -0.00135935 0)
(-0.00855627 -0.00134922 0)
(-0.00808444 -0.00133635 0)
(-0.00761745 -0.0013207 0)
(-0.00715626 -0.00130225 0)
(-0.00670182 -0.00128099 0)
(-0.00625509 -0.00125692 0)
(-0.00581703 -0.00123003 0)
(-0.0053886 -0.00120033 0)
(-0.00497073 -0.00116782 0)
(-0.00456438 -0.00113254 0)
(-0.00417047 -0.0010945 0)
(-0.00378991 -0.00105376 0)
(-0.0034236 -0.00101037 0)
(-0.00307238 -0.000964384 0)
(-0.00273712 -0.000915896 0)
(-0.00241859 -0.000865002 0)
(-0.00211756 -0.000811822 0)
(-0.00183474 -0.000756501 0)
(-0.00157077 -0.000699211 0)
(-0.00132623 -0.000640155 0)
(-0.00110161 -0.000579579 0)
(-0.000897322 -0.000517771 0)
(-0.000713655 -0.000455079 0)
(-0.000550774 -0.000391916 0)
(-0.000408696 -0.000328774 0)
(-0.000287268 -0.000266247 0)
(-0.000186135 -0.000205044 0)
(-0.000104715 -0.000146022 0)
(-4.21645e-05 -9.02097e-05 0)
(2.66437e-06 -3.88438e-05 0)
(3.12585e-05 6.5914e-06 0)
(4.5492e-05 4.43274e-05 0)
(4.76758e-05 7.22756e-05 0)
(4.05746e-05 8.80036e-05 0)
(2.74626e-05 8.87407e-05 0)
(1.28238e-05 7.14045e-05 0)
(2.89926e-06 3.24413e-05 0)
(2.22813e-06 -3.78156e-05 0)
(8.62992e-06 -7.89368e-05 0)
(1.57367e-05 -9.20257e-05 0)
(1.78232e-05 -8.2158e-05 0)
(1.05695e-05 -5.34813e-05 0)
(-9.28625e-06 -9.60208e-06 0)
(-4.44677e-05 4.63656e-05 0)
(-9.72269e-05 0.000111768 0)
(-0.000169374 0.000184357 0)
(-0.000262328 0.000262244 0)
(-0.000377159 0.000343843 0)
(-0.00051463 0.000427831 0)
(-0.00067523 0.000513103 0)
(-0.000859212 0.000598741 0)
(-0.00106662 0.00068398 0)
(-0.00129732 0.000768184 0)
(-0.00155102 0.000850822 0)
(-0.00182729 0.000931457 0)
(-0.0021256 0.00100972 0)
(-0.00244531 0.00108532 0)
(-0.00278569 0.00115799 0)
(-0.00314597 0.00122755 0)
(-0.00352528 0.00129382 0)
(-0.00392273 0.00135667 0)
(-0.00433738 0.00141599 0)
(-0.00476826 0.00147171 0)
(-0.00521436 0.00152376 0)
(-0.00567468 0.00157211 0)
(-0.00614816 0.00161671 0)
(-0.00663376 0.00165756 0)
(-0.00713044 0.00169466 0)
(-0.00763712 0.001728 0)
(-0.00815275 0.00175762 0)
(-0.00867627 0.00178352 0)
(-0.00920662 0.00180575 0)
(-0.00974276 0.00182434 0)
(-0.0102837 0.00183932 0)
(-0.0108283 0.00185076 0)
(-0.0113756 0.00185869 0)
(-0.0119246 0.00186317 0)
(-0.0124743 0.00186425 0)
(-0.0130238 0.00186201 0)
(-0.013572 0.0018565 0)
(-0.0141181 0.00184779 0)
(-0.014661 0.00183594 0)
(-0.0152 0.00182102 0)
(-0.0157341 0.0018031 0)
(-0.0162624 0.00178226 0)
(-0.0167842 0.00175857 0)
(-0.0172985 0.0017321 0)
(-0.0178046 0.00170293 0)
(-0.0183017 0.00167113 0)
(-0.018789 0.00163678 0)
(-0.0192659 0.00159995 0)
(-0.0197315 0.00156074 0)
(-0.0201852 0.00151921 0)
(-0.0206263 0.00147544 0)
(-0.0210541 0.00142952 0)
(-0.0214682 0.00138152 0)
(-0.0218677 0.00133153 0)
(-0.0222523 0.00127963 0)
(-0.0226213 0.0012259 0)
(-0.0229741 0.00117043 0)
(-0.0233104 0.00111329 0)
(-0.0236296 0.00105458 0)
(-0.0239312 0.000994367 0)
(-0.0242149 0.000932749 0)
(-0.0244802 0.000869807 0)
(-0.0247268 0.000805629 0)
(-0.0249542 0.000740301 0)
(-0.0251623 0.000673911 0)
(-0.0253506 0.000606547 0)
(-0.0255189 0.000538297 0)
(-0.025667 0.000469252 0)
(-0.0257947 0.000399502 0)
(-0.0259017 0.000329137 0)
(-0.0259879 0.00025825 0)
(-0.0260531 0.000186934 0)
(-0.0260972 0.000115281 0)
(-0.0261203 4.3385e-05 0)
(-0.0261221 -2.86583e-05 0)
(-0.0261026 -0.000100754 0)
(-0.026062 -0.000172805 0)
(-0.0260001 -0.000244714 0)
(-0.0259171 -0.000316385 0)
(-0.0258131 -0.000387718 0)
(-0.0256881 -0.000458614 0)