/*--------------------------------*- C++ -*----------------------------------*\
  =========                 |
  \\      /  F ield         | OpenFOAM: The Open Source CFD Toolbox
   \\    /   O peration     | Website:  https://openfoam.org
    \\  /    A nd           | Version:  7
     \\/     M anipulation  |
\*---------------------------------------------------------------------------*/
FoamFile
{
    version     2.0;
    format      ascii;
    class       volScalarField;
    location    "0.45";
    object      p;
}
// * * * * * * * * * * * * * * * * * * * * * * * * * * * * * * * * * * * * * //

dimensions      [0 2 -2 0 0 0 0];

internalField   nonuniform List<scalar> 
25600
(
3.75474e-06
0.000118059
0.000147332
3.94464e-05
-0.000213686
-0.000608221
-0.00113284
-0.00177296
-0.00251304
-0.00333799
-0.00423339
-0.00518559
-0.00618191
-0.00721071
-0.00826132
-0.00932394
-0.0103895
-0.0114497
-0.012497
-0.0135245
-0.0145258
-0.0154951
-0.0164273
-0.0173173
-0.018161
-0.0189543
-0.0196937
-0.0203759
-0.0209981
-0.0215578
-0.0220525
-0.0224804
-0.0228396
-0.0231287
-0.0233464
-0.0234916
-0.0235636
-0.0235616
-0.0234852
-0.023334
-0.023108
-0.0228071
-0.0224316
-0.0219818
-0.0214582
-0.0208612
-0.0201917
-0.0194505
-0.0186384
-0.0177567
-0.0168063
-0.0157886
-0.0147048
-0.0135565
-0.0123451
-0.0110723
-0.00973973
-0.00834912
-0.00690234
-0.00540128
-0.0038479
-0.00224423
-0.000592365
0.00110556
0.00284733
0.00463071
0.00645338
0.00831299
0.0102072
0.0121334
0.0140893
0.0160722
0.0180797
0.0201091
0.0221578
0.0242231
0.0263023
0.0283928
0.0304918
0.0325966
0.0347043
0.0368123
0.0389176
0.0410176
0.0431093
0.0451901
0.047257
0.0493073
0.0513382
0.0533469
0.0553306
0.0572865
0.059212
0.0611043
0.0629608
0.0647788
0.0665557
0.068289
0.0699762
0.0716147
0.0732023
0.0747366
0.0762153
0.0776363
0.0789973
0.0802965
0.0815318
0.0827014
0.0838036
0.0848366
0.085799
0.0866893
0.0875063
0.0882487
0.0889156
0.0895061
0.0900193
0.0904548
0.090812
0.0910908
0.0912911
0.0914129
0.0914566
0.0914226
0.0913117
0.0911247
0.0908628
0.0905274
0.0901201
0.0896427
0.0890975
0.0884868
0.0878132
0.08708
0.0862903
0.0854478
0.0845566
0.0836211
0.0826461
0.0816368
0.0805989
0.0795386
0.0784625
0.077378
0.0762927
0.0752152
0.0741546
0.073121
0.0721248
0.0711777
0.070292
0.0694809
0.0687584
0.0681388
0.0676366
0.0672649
0.0670331
0.0669429
0.0669833
0.0670987
-0.000105317
6.89457e-06
1.12684e-05
-0.000109513
-0.000351458
-0.000713017
-0.00118748
-0.00176437
-0.00243168
-0.00317705
-0.00398828
-0.00485358
-0.00576178
-0.00670229
-0.00766526
-0.00864152
-0.00962259
-0.0106006
-0.0115685
-0.0125194
-0.0134474
-0.0143468
-0.0152124
-0.0160395
-0.0168239
-0.0175616
-0.0182492
-0.0188834
-0.0194614
-0.0199805
-0.0204385
-0.0208334
-0.0211633
-0.0214268
-0.0216225
-0.0217494
-0.0218064
-0.021793
-0.0217086
-0.0215528
-0.0213255
-0.0210266
-0.0206561
-0.0202145
-0.0197021
-0.0191193
-0.0184668
-0.0177454
-0.016956
-0.0160995
-0.0151769
-0.0141896
-0.0131387
-0.0120256
-0.0108517
-0.00961857
-0.00832781
-0.00698111
-0.0055802
-0.00412692
-0.00262316
-0.00107085
0.000527996
0.0021713
0.00385696
0.00558279
0.00734656
0.00914601
0.0109788
0.0128426
0.014735
0.0166536
0.0185958
0.0205592
0.0225412
0.0245392
0.0265507
0.028573
0.0306034
0.0326394
0.0346782
0.0367172
0.0387535
0.0407847
0.0428078
0.0448203
0.0468193
0.0488022
0.0507663
0.0527089
0.0546273
0.0565188
0.0583809
0.0602109
0.0620062
0.0637643
0.0654828
0.0671591
0.0687908
0.0703757
0.0719113
0.0733955
0.0748262
0.0762011
0.0775184
0.078776
0.0799721
0.081105
0.082173
0.0831745
0.0841081
0.0849724
0.0857663
0.0864887
0.0871386
0.0877152
0.0882178
0.0886459
0.0889992
0.0892775
0.0894807
0.0896091
0.0896629
0.0896427
0.0895492
0.0893835
0.0891466
0.08884
0.0884653
0.0880244
0.0875194
0.0869527
0.0863271
0.0856455
0.0849112
0.0841278
0.0832992
0.0824299
0.0815245
0.080588
0.079626
0.0786443
0.0776496
0.0766486
0.0756487
0.0746581
0.0736852
0.0727393
0.0718302
0.0709681
0.0701642
0.0694297
0.0687765
0.0682161
0.0677596
0.0674162
0.0671912
0.0670846
0.0670985
0.067214
-0.0001336
3.14665e-06
7.60178e-06
-0.000114573
-0.000346776
-0.000685851
-0.0011263
-0.00165949
-0.00227538
-0.00296342
-0.00371293
-0.00451345
-0.00535497
-0.00622791
-0.00712314
-0.00803212
-0.00894689
-0.00986004
-0.0107647
-0.0116545
-0.0125237
-0.0133666
-0.0141784
-0.0149545
-0.0156906
-0.016383
-0.0170281
-0.0176229
-0.0181645
-0.0186503
-0.019078
-0.0194456
-0.0197513
-0.0199935
-0.0201709
-0.0202825
-0.0203271
-0.0203042
-0.0202131
-0.0200534
-0.019825
-0.0195276
-0.0191614
-0.0187266
-0.0182235
-0.0176525
-0.0170143
-0.0163096
-0.0155391
-0.0147038
-0.0138047
-0.0128429
-0.0118196
-0.010736
-0.00959368
-0.00839396
-0.00713843
-0.00582869
-0.00446644
-0.00305342
-0.00159146
-8.24465e-05
0.00147169
0.00306895
0.00470727
0.00638456
0.00809865
0.00984735
0.0116284
0.0134395
0.0152784
0.0171426
0.0190298
0.0209375
0.0228632
0.0248045
0.0267588
0.0287235
0.0306962
0.0326742
0.0346549
0.0366357
0.038614
0.0405871
0.0425524
0.0445074
0.0464492
0.0483754
0.0502833
0.0521702
0.0540337
0.055871
0.0576798
0.0594574
0.0612013
0.0629091
0.0645785
0.0662069
0.0677922
0.0693319
0.070824
0.0722663
0.0736566
0.074993
0.0762735
0.0774964
0.0786597
0.0797618
0.0808012
0.0817764
0.0826859
0.0835286
0.0843033
0.0850089
0.0856446
0.0862097
0.0867034
0.0871255
0.0874755
0.0877533
0.087959
0.0880927
0.0881549
0.0881461
0.0880671
0.0879189
0.0877026
0.0874198
0.0870719
0.0866609
0.086189
0.0856584
0.0850719
0.0844325
0.0837433
0.0830079
0.0822302
0.0814144
0.0805651
0.0796871
0.0787858
0.0778669
0.0769366
0.0760016
0.0750687
0.0741457
0.0732406
0.0723618
0.0715184
0.0707199
0.0699761
0.069297
0.0686929
0.0681735
0.0677482
0.0674248
0.0672075
0.0670983
0.0671123
0.0672546
-2.56627e-05
0.000124187
0.000130191
8.09893e-06
-0.000218202
-0.000543508
-0.000962092
-0.00146583
-0.00204576
-0.00269244
-0.0033963
-0.00414794
-0.00493827
-0.00575852
-0.00660027
-0.00745554
-0.00831686
-0.00917724
-0.0100302
-0.0108697
-0.01169
-0.0124859
-0.0132527
-0.0139858
-0.0146812
-0.0153352
-0.0159443
-0.0165055
-0.017016
-0.0174732
-0.0178749
-0.018219
-0.0185038
-0.0187277
-0.0188893
-0.0189876
-0.0190215
-0.0189903
-0.0188934
-0.0187304
-0.0185009
-0.018205
-0.0178425
-0.0174136
-0.0169187
-0.0163582
-0.0157325
-0.0150424
-0.0142886
-0.013472
-0.0125935
-0.0116541
-0.0106551
-0.00959768
-0.00848314
-0.00731291
-0.00608846
-0.00481136
-0.00348324
-0.00210579
-0.000680769
0.000789992
0.00230462
0.00386117
0.00545765
0.00709202
0.00876218
0.010466
0.0122013
0.0139658
0.0157573
0.0175735
0.019412
0.0212705
0.0231464
0.0250375
0.0269413
0.0288552
0.0307768
0.0327035
0.0346329
0.0365623
0.0384893
0.0404112
0.0423255
0.0442296
0.046121
0.0479971
0.0498554
0.0516933
0.0535084
0.055298
0.0570597
0.0587912
0.0604899
0.0621535
0.0637796
0.0653659
0.0669103
0.0684104
0.0698642
0.0712696
0.0726246
0.0739272
0.0751755
0.0763679
0.0775024
0.0785777
0.0795921
0.0805442
0.0814327
0.0822564
0.0830142
0.0837052
0.0843285
0.0848835
0.0853695
0.0857862
0.0861333
0.0864106
0.0866184
0.0867568
0.0868262
0.0868272
0.0867606
0.0866274
0.0864288
0.0861662
0.0858413
0.0854559
0.0850121
0.0845123
0.0839591
0.0833554
0.0827043
0.0820094
0.0812744
0.0805034
0.0797008
0.0788714
0.0780203
0.077153
0.0762754
0.0753939
0.074515
0.0736459
0.0727942
0.0719678
0.071175
0.0704245
0.0697252
0.0690862
0.0685166
0.0680252
0.0676204
0.0673096
0.0670976
0.0669886
0.0670059
0.0671649
0.000227133
0.000366375
0.000362753
0.000234853
8.55558e-06
-0.000309788
-0.000714163
-0.00119676
-0.00174927
-0.0023632
-0.00302998
-0.0037411
-0.00448825
-0.0052634
-0.00605879
-0.00686704
-0.00768116
-0.00849461
-0.00930125
-0.0100953
-0.0108714
-0.0116246
-0.0123502
-0.0130439
-0.0137018
-0.0143203
-0.0148961
-0.0154262
-0.0159078
-0.0163383
-0.0167157
-0.0170379
-0.0173031
-0.0175098
-0.0176566
-0.0177424
-0.0177662
-0.0177273
-0.017625
-0.0174588
-0.0172285
-0.0169339
-0.016575
-0.0161519
-0.0156649
-0.0151144
-0.0145007
-0.0138247
-0.0130869
-0.0122881
-0.0114294
-0.0105117
-0.00953601
-0.00850365
-0.00741584
-0.00627393
-0.00507937
-0.00383365
-0.00253835
-0.00119511
0.000194366
0.00162832
0.00310492
0.00462229
0.0061785
0.00777157
0.00939945
0.0110601
0.0127513
0.014471
0.0162169
0.0179868
0.0197785
0.0215895
0.0234176
0.0252604
0.0271155
0.0289805
0.030853
0.0327304
0.0346104
0.0364904
0.038368
0.0402407
0.042106
0.0439613
0.0458043
0.0476323
0.049443
0.0512338
0.0530023
0.0547461
0.0564628
0.05815
0.0598053
0.0614264
0.0630111
0.0645572
0.0660624
0.0675246
0.0689417
0.0703118
0.071633
0.0729032
0.0741208
0.0752839
0.0763911
0.0774406
0.0784311
0.0793612
0.0802296
0.0810352
0.0817769
0.0824539
0.0830654
0.0836107
0.0840893
0.0845008
0.0848451
0.085122
0.0853316
0.0854742
0.0855503
0.0855604
0.0855054
0.0853862
0.0852041
0.0849605
0.0846569
0.0842953
0.0838777
0.0834063
0.0828839
0.0823132
0.0816973
0.0810396
0.0803437
0.0796137
0.0788537
0.0780684
0.0772626
0.0764417
0.0756113
0.0747772
0.0739459
0.0731241
0.0723186
0.0715371
0.070787
0.0700765
0.0694134
0.0688063
0.0682631
0.067792
0.0674007
0.0670966
0.0668848
0.066771
0.0667812
0.0669342
0.000620776
0.000728224
0.000702542
0.000560864
0.000327326
8.67094e-06
-0.000389021
-0.000858303
-0.00139146
-0.00198077
-0.0026185
-0.00329695
-0.00400855
-0.0047459
-0.00550188
-0.00626967
-0.00704278
-0.00781509
-0.00858083
-0.00933456
-0.0100712
-0.0107859
-0.0114743
-0.0121323
-0.0127561
-0.0133423
-0.0138875
-0.014389
-0.0148439
-0.01525
-0.0156049
-0.0159067
-0.0161538
-0.0163445
-0.0164776
-0.0165518
-0.0165663
-0.0165202
-0.0164128
-0.0162438
-0.0160128
-0.0157196
-0.0153642
-0.0149467
-0.0144673
-0.0139263
-0.0133242
-0.0126616
-0.011939
-0.0111574
-0.0103176
-0.00942046
-0.00846713
-0.00745872
-0.00639645
-0.00528162
-0.00411563
-0.00289991
-0.00163599
-0.000325466
0.00103003
0.00242877
0.00386901
0.00534891
0.00686659
0.00842013
0.0100076
0.0116268
0.0132759
0.0149527
0.016655
0.0183807
0.0201275
0.0218932
0.0236755
0.0254722
0.0272807
0.0290989
0.0309244
0.0327547
0.0345875
0.0364203
0.0382507
0.0400764
0.0418948
0.0437035
0.0455002
0.0472823
0.0490476
0.0507935
0.0525176
0.0542177
0.0558914
0.0575364
0.0591504
0.0607311
0.0622764
0.063784
0.0652519
0.066678
0.0680603
0.0693969
0.0706858
0.0719253
0.0731136
0.0742491
0.0753301
0.0763553
0.077323
0.0782322
0.0790815
0.0798699
0.0805964
0.0812601
0.0818604
0.0823965
0.0828679
0.0832745
0.083616
0.0838922
0.0841035
0.08425
0.0843322
0.0843507
0.0843064
0.0842001
0.0840332
0.083807
0.0835231
0.0831834
0.0827898
0.0823446
0.0818503
0.0813098
0.0807259
0.080102
0.0794416
0.0787485
0.0780269
0.0772811
0.0765157
0.075736
0.0749471
0.0741546
0.0733646
0.0725833
0.0718173
0.0710733
0.0703585
0.0696802
0.0690457
0.0684626
0.0679382
0.0674801
0.0670955
0.0667912
0.066573
0.0664469
0.0664381
0.0665643
0.00114476
0.00120358
0.00114453
0.000980855
0.00073245
0.000406044
7.60448e-06
-0.000455924
-0.000977455
-0.00154995
-0.00216639
-0.00281978
-0.00350321
-0.00420992
-0.00493336
-0.00566722
-0.00640553
-0.00714257
-0.00787292
-0.00859147
-0.00929338
-0.00997414
-0.0106295
-0.0112557
-0.0118489
-0.012406
-0.0129237
-0.0133993
-0.0138301
-0.0142138
-0.0145483
-0.0148316
-0.0150621
-0.0152383
-0.0153588
-0.0154224
-0.0154283
-0.0153757
-0.0152639
-0.0150923
-0.0148608
-0.0145691
-0.0142171
-0.0138049
-0.0133327
-0.0128008
-0.0122097
-0.0115598
-0.0108518
-0.0100864
-0.00926445
-0.00838689
-0.00745471
-0.00646901
-0.00543095
-0.00434181
-0.0032029
-0.00201564
-0.00078149
0.000498007
0.00182126
0.0031866
0.00459232
0.00603666
0.00751778
0.00903382
0.0105829
0.0121629
0.013772
0.0154081
0.017069
0.0187527
0.020457
0.0221796
0.0239185
0.0256713
0.0274358
0.0292096
0.0309905
0.0327761
0.0345641
0.0363522
0.038138
0.039919
0.0416931
0.0434577
0.0452105
0.0469492
0.0486714
0.0503748
0.052057
0.0537158
0.0553489
0.056954
0.0585288
0.0600714
0.0615794
0.0630507
0.0644835
0.0658755
0.0672249
0.0685298
0.0697884
0.070999
0.0721597
0.0732691
0.0743255
0.0753276
0.0762741
0.0771635
0.0779949
0.0787671
0.0794792
0.0801304
0.0807199
0.0812473
0.0817121
0.0821139
0.0824526
0.0827281
0.0829407
0.0830906
0.0831783
0.0832044
0.0831697
0.0830753
0.0829222
0.0827118
0.0824458
0.0821258
0.081754
0.0813324
0.0808636
0.0803501
0.079795
0.0792014
0.0785726
0.0779124
0.0772247
0.0765136
0.0757837
0.0750397
0.0742866
0.0735298
0.0727748
0.0720275
0.0712939
0.0705805
0.0698936
0.0692401
0.0686266
0.06806
0.0675472
0.0670949
0.0667098
0.0663986
0.0661667
0.0660207
0.0659817
0.066064
0.00178539
0.00178261
0.00168052
0.00148713
0.00121662
0.000875424
0.000469293
4.54779e-06
-0.000512414
-0.00107518
-0.00167736
-0.00231261
-0.00297463
-0.00365724
-0.00435444
-0.00506045
-0.00576973
-0.00647696
-0.00717708
-0.00786529
-0.00853705
-0.00918811
-0.00981447
-0.0104124
-0.0109786
-0.0115096
-0.0120027
-0.012455
-0.0128641
-0.0132277
-0.0135437
-0.0138102
-0.0140257
-0.0141886
-0.0142977
-0.0143518
-0.01435
-0.0142914
-0.0141756
-0.0140019
-0.0137701
-0.0134799
-0.0131313
-0.0127242
-0.012259
-0.0117358
-0.011155
-0.0105172
-0.00982299
-0.009073
-0.00826805
-0.00740903
-0.0064969
-0.00553272
-0.00451761
-0.0034528
-0.00233957
-0.00117928
2.66517e-05
0.00127673
0.00256942
0.00390309
0.0052761
0.00668672
0.00813317
0.00961365
0.0111263
0.0126692
0.0142403
0.0158378
0.0174595
0.0191033
0.0207673
0.0224492
0.0241469
0.0258582
0.0275808
0.0293126
0.0310513
0.0327946
0.0345402
0.0362859
0.0380294
0.0397683
0.0415003
0.0432232
0.0449346
0.0466322
0.0483137
0.0499769
0.0516195
0.0532392
0.0548339
0.0564013
0.0579393
0.0594458
0.0609187
0.0623559
0.0637554
0.0651153
0.0664338
0.0677089
0.0689389
0.0701221
0.0712569
0.0723417
0.073375
0.0743555
0.0752818
0.0761527
0.0769672
0.0777241
0.0784226
0.079062
0.0796415
0.0801606
0.0806189
0.0810161
0.0813521
0.0816268
0.0818405
0.0819934
0.082086
0.0821189
0.0820929
0.082009
0.0818683
0.0816722
0.0814223
0.0811202
0.0807679
0.0803675
0.0799214
0.0794322
0.0789027
0.0783359
0.0777351
0.0771038
0.0764458
0.075765
0.0750657
0.0743525
0.07363
0.0729032
0.0721773
0.0714579
0.0707505
0.070061
0.0693955
0.0687599
0.0681606
0.0676038
0.0670957
0.0666425
0.0662503
0.0659254
0.065673
0.0654995
0.0654206
0.065446
0.00252819
0.00245408
0.00230107
0.00207124
0.00177215
0.00140974
0.000989544
0.000517204
-1.56986e-06
-0.000560986
-0.00115526
-0.00177862
-0.00242537
-0.00308986
-0.00376662
-0.00445035
-0.00513593
-0.00581843
-0.00649313
-0.00715555
-0.00780144
-0.0084268
-0.00902789
-0.00960119
-0.0101434
-0.0106515
-0.0111227
-0.0115543
-0.011944
-0.0122895
-0.0125889
-0.0128404
-0.0130423
-0.0131933
-0.0132921
-0.0133376
-0.0133288
-0.0132651
-0.0131457
-0.0129703
-0.0127384
-0.0124498
-0.0121045
-0.0117024
-0.0112439
-0.010729
-0.0101581
-0.00953184
-0.00885067
-0.00811529
-0.00732644
-0.00648499
-0.00559186
-0.00464807
-0.0036547
-0.00261294
-0.00152403
-0.000389285
0.000789918
0.00201214
0.00327586
0.00457954
0.00592156
0.00730023
0.00871385
0.0101606
0.0116388
0.0131464
0.0146817
0.0162425
0.0178271
0.0194333
0.021059
0.0227023
0.024361
0.026033
0.027716
0.029408
0.0311068
0.03281
0.0345156
0.0362212
0.0379247
0.0396237
0.041316
0.0429994
0.0446717
0.0463304
0.0479736
0.0495988
0.051204
0.0527869
0.0543454
0.0558773
0.0573805
0.058853
0.0602928
0.0616978
0.063066
0.0643957
0.065685
0.0669321
0.0681352
0.0692927
0.0704031
0.0714648
0.0724764
0.0734365
0.0743439
0.0751974
0.0759959
0.0767385
0.0774243
0.0780525
0.0786225
0.0791337
0.0795859
0.0799786
0.0803119
0.0805857
0.0808001
0.0809555
0.0810524
0.0810913
0.081073
0.0809986
0.0808691
0.0806858
0.0804502
0.0801641
0.0798292
0.0794477
0.0790218
0.0785541
0.0780471
0.077504
0.0769277
0.0763216
0.0756893
0.0750345
0.0743614
0.0736742
0.0729773
0.0722753
0.0715732
0.070876
0.070189
0.0695176
0.0688672
0.0682435
0.0676522
0.0670989
0.0665893
0.066129
0.0657237
0.0653789
0.0650997
0.0648919
0.0647654
0.064724
0.003359
0.00320662
0.00299647
0.00272452
0.00239118
0.0020019
0.00156192
0.00107623
0.00054988
-1.19459e-05
-0.000604049
-0.00122123
-0.0018583
-0.00251016
-0.00317182
-0.00383841
-0.00450523
-0.00516772
-0.00582151
-0.0064624
-0.00708646
-0.00768994
-0.00826931
-0.00882126
-0.0093427
-0.00983073
-0.0102827
-0.010696
-0.0110685
-0.011398
-0.0116826
-0.0119206
-0.0121105
-0.0122509
-0.0123405
-0.0123783
-0.0123635
-0.0122952
-0.0121728
-0.0119959
-0.0117642
-0.0114773
-0.0111353
-0.0107381
-0.010286
-0.009779
-0.00921763
-0.00860229
-0.00793353
-0.00721199
-0.0064384
-0.00561359
-0.00473844
-0.00381394
-0.00284114
-0.00182119
-0.000755285
0.000355298
0.00150922
0.00270508
0.00394143
0.00521673
0.00652943
0.0078779
0.00926046
0.0106754
0.0121209
0.0135952
0.0150965
0.0166228
0.0181722
0.0197427
0.0213324
0.0229392
0.024561
0.0261958
0.0278415
0.0294959
0.0311569
0.0328224
0.0344901
0.0361579
0.0378236
0.0394849
0.0411398
0.042786
0.0444213
0.0460435
0.0476504
0.0492399
0.0508099
0.0523581
0.0538825
0.0553809
0.0568515
0.058292
0.0597006
0.0610753
0.0624142
0.0637155
0.0649774
0.0661981
0.067376
0.0685094
0.0695969
0.0706369
0.0716281
0.0725691
0.0734588
0.0742959
0.0750795
0.0758086
0.0764823
0.0771
0.077661
0.0781648
0.0786111
0.0789995
0.0793301
0.0796028
0.0798177
0.0799752
0.0800757
0.0801199
0.0801084
0.0800423
0.0799227
0.0797507
0.0795279
0.0792558
0.0789364
0.0785715
0.0781634
0.0777145
0.0772273
0.0767046
0.0761495
0.0755651
0.0749547
0.0743221
0.073671
0.0730053
0.0723293
0.0716473
0.070964
0.0702838
0.0696119
0.068953
0.0683122
0.0676947
0.0671057
0.0665503
0.0660336
0.0655607
0.0651367
0.0647664
0.0644548
0.0642072
0.0640266
0.0639114
0.00426437
0.00402904
0.00375701
0.00343825
0.00306585
0.00264476
0.00217998
0.00167583
0.00113676
0.00056734
-2.77771e-05
-0.000643923
-0.00127643
-0.00192067
-0.00257211
-0.00322632
-0.00387896
-0.00452583
-0.00516288
-0.00578626
-0.00639228
-0.00697745
-0.00753848
-0.00807225
-0.00857584
-0.00904652
-0.00948174
-0.00987915
-0.0102366
-0.010552
-0.0108236
-0.0110498
-0.011229
-0.01136
-0.0114416
-0.0114727
-0.0114525
-0.0113803
-0.0112555
-0.0110775
-0.0108462
-0.0105612
-0.0102224
-0.00983001
-0.009384
-0.00888465
-0.00833229
-0.00772736
-0.00707037
-0.00636195
-0.00560281
-0.00479373
-0.00393558
-0.00302932
-0.00207596
-0.0010766
-3.24227e-05
0.00105534
0.00218539
0.00335637
0.00456685
0.00581537
0.00710039
0.00842033
0.00977357
0.0111584
0.0125732
0.014016
0.0154852
0.0169789
0.0184951
0.020032
0.0215876
0.02316
0.024747
0.0263468
0.0279572
0.0295762
0.0312016
0.0328314
0.0344634
0.0360956
0.0377257
0.0393517
0.0409713
0.0425824
0.044183
0.0457708
0.0473436
0.0488995
0.0504363
0.0519519
0.0534443
0.0549114
0.0563512
0.0577618
0.0591411
0.0604874
0.0617988
0.0630735
0.0643097
0.0655057
0.0666599
0.0677708
0.0688368
0.0698566
0.0708286
0.0717518
0.0726248
0.0734466
0.0742162
0.0749326
0.075595
0.0762028
0.0767553
0.0772521
0.0776927
0.078077
0.0784049
0.0786763
0.0788914
0.0790506
0.0791542
0.0792029
0.0791974
0.0791386
0.0790275
0.0788655
0.0786538
0.0783941
0.0780881
0.0777378
0.0773451
0.0769124
0.0764422
0.0759372
0.0754001
0.074834
0.0742421
0.0736277
0.0729946
0.0723464
0.071687
0.0710206
0.0703512
0.0696834
0.0690215
0.0683701
0.0677338
0.0671174
0.0665256
0.0659629
0.065434
0.0649436
0.0644959
0.0640953
0.0637465
0.0634543
0.063215
0.0630209
0.0052319
0.00491055
0.00457319
0.00420389
0.00378839
0.00333128
0.00283736
0.0023103
0.00175393
0.00117229
0.000569498
-5.02751e-05
-0.000682842
-0.00132404
-0.00196975
-0.00261592
-0.00325859
-0.0038939
-0.00451813
-0.00512771
-0.00571925
-0.00628949
-0.00683535
-0.00735392
-0.00784245
-0.00829838
-0.00871931
-0.00910301
-0.00944743
-0.00975066
-0.010011
-0.0102269
-0.0103968
-0.0105197
-0.0105942
-0.0106195
-0.0105948
-0.0105193
-0.0103924
-0.0102138
-0.00998308
-0.00970005
-0.00936462
-0.00897683
-0.00853679
-0.00804472
-0.00750096
-0.00690591
-0.00626008
-0.00556408
-0.00481859
-0.00402438
-0.00318228
-0.00229322
-0.00135819
-0.00037826
0.000645432
0.00171168
0.00281923
0.00396675
0.00515286
0.00637613
0.00763507
0.00892813
0.0102537
0.0116102
0.012996
0.0144092
0.0158482
0.0173111
0.0187961
0.0203013
0.0218249
0.0233648
0.0249191
0.0264859
0.0280631
0.0296487
0.0312407
0.032837
0.0344355
0.0360342
0.0376309
0.0392235
0.04081
0.0423883
0.0439562
0.0455116
0.0470526
0.048577
0.0500827
0.0515677
0.0530301
0.0544678
0.0558788
0.0572613
0.0586133
0.0599331
0.0612187
0.0624684
0.0636806
0.0648536
0.0659857
0.0670755
0.0681215
0.0691223
0.0700765
0.070983
0.0718405
0.072648
0.0734044
0.074109
0.0747608
0.0753593
0.0759038
0.0763939
0.0768292
0.0772095
0.0775346
0.0778046
0.0780197
0.0781801
0.0782863
0.0783388
0.0783383
0.0782858
0.0781822
0.0780288
0.0778268
0.0775777
0.0772833
0.0769454
0.0765659
0.0761471
0.0756913
0.0752011
0.074679
0.0741281
0.0735513
0.0729518
0.0723329
0.0716983
0.0710515
0.0703964
0.0697368
0.0690767
0.0684204
0.0677719
0.0671356
0.0665156
0.0659163
0.0653417
0.0647962
0.0642837
0.063808
0.0633729
0.0629829
0.0626425
0.0623407
0.0620645
0.00625024
0.00584097
0.00543585
0.00501312
0.00455127
0.00405464
0.00352787
0.00297401
0.00239633
0.00179835
0.0011837
0.000556103
-8.07183e-05
-0.000723018
-0.00136707
-0.0020092
-0.00264577
-0.00327327
-0.00388829
-0.00448756
-0.00506792
-0.00562638
-0.00616005
-0.00666622
-0.00714233
-0.00758597
-0.0079949
-0.00836702
-0.0087004
-0.00899323
-0.0092439
-0.00945091
-0.00961294
-0.00972878
-0.00979736
-0.00981777
-0.00978921
-0.00971101
-0.00958265
-0.00940369
-0.00917383
-0.00889289
-0.00856077
-0.00817751
-0.00774322
-0.00725813
-0.00672256
-0.00613689
-0.00550164
-0.00481738
-0.00408478
-0.00330458
-0.00247761
-0.00160475
-0.000686982
0.000274664
0.00127908
0.00232509
0.00341147
0.00453693
0.00570012
0.00689964
0.00813405
0.00940184
0.0107015
0.0120313
0.0133898
0.0147752
0.0161858
0.0176198
0.0190754
0.0205509
0.0220443
0.0235538
0.0250774
0.0266132
0.0281593
0.0297136
0.0312742
0.032839
0.034406
0.0359733
0.0375386
0.0391001
0.0406556
0.042203
0.0437404
0.0452656
0.0467767
0.0482715
0.0497482
0.0512047
0.052639
0.0540492
0.0554334
0.0567897
0.0581162
0.0594111
0.0606727
0.0618993
0.0630891
0.0642406
0.0653521
0.0664223
0.0674496
0.0684328
0.0693704
0.0702613
0.0711044
0.0718985
0.0726427
0.0733362
0.0739782
0.074568
0.075105
0.0755887
0.0760189
0.0763953
0.0767177
0.0769863
0.077201
0.0773623
0.0774705
0.0775261
0.0775299
0.0774827
0.0773854
0.0772393
0.0770455
0.0768055
0.0765209
0.0761935
0.0758251
0.0754179
0.074974
0.0744959
0.0739862
0.0734475
0.0728826
0.0722946
0.0716866
0.0710619
0.070424
0.0697763
0.0691225
0.0684662
0.0678113
0.0671616
0.0665209
0.0658931
0.0652821
0.0646916
0.0641254
0.0635869
0.0630795
0.0626064
0.0621719
0.0617802
0.0614135
0.061053
0.00730911
0.00681086
0.00633636
0.00585806
0.00534731
0.00480825
0.00424546
0.00366145
0.00305894
0.00244098
0.00181077
0.00117158
0.000526729
-0.000120422
-0.000766518
-0.00140822
-0.00204225
-0.0026654
-0.00327456
-0.00386673
-0.00443902
-0.00498862
-0.00551289
-0.0060093
-0.00647547
-0.00690915
-0.00730825
-0.0076708
-0.00799498
-0.00827912
-0.00852168
-0.00872126
-0.0088766
-0.00898656
-0.00905015
-0.00906648
-0.00903482
-0.00895454
-0.00882513
-0.00864619
-0.00841743
-0.00813869
-0.00780989
-0.00743106
-0.00700233
-0.00652392
-0.00599614
-0.00541937
-0.00479411
-0.00412093
-0.00340048
-0.00263348
-0.00182073
-0.000963109
-6.15552e-05
0.000882918
0.00186923
0.00289625
0.00396276
0.00506751
0.0062092
0.00738645
0.00859785
0.00984194
0.0111172
0.0124221
0.013755
0.0151143
0.0164982
0.0179051
0.0193333
0.0207809
0.0222461
0.023727
0.0252218
0.0267286
0.0282455
0.0297706
0.0313018
0.0328372
0.0343748
0.0359127
0.0374488
0.038981
0.0405075
0.0420262
0.043535
0.045032
0.0465152
0.0479826
0.0494322
0.0508621
0.0522703
0.0536549
0.0550141
0.0563459
0.0576487
0.0589206
0.0601599
0.0613649
0.0625339
0.0636655
0.064758
0.0658099
0.06682
0.0677867
0.068709
0.0695854
0.0704151
0.0711968
0.0719297
0.072613
0.0732457
0.0738274
0.0743573
0.0748351
0.0752604
0.075633
0.0759528
0.0762197
0.0764339
0.0765957
0.0767054
0.0767636
0.0767708
0.076728
0.076636
0.0764959
0.0763089
0.0760765
0.0758
0.0754813
0.075122
0.0747242
0.07429
0.0738216
0.0733215
0.0727922
0.0722363
0.0716568
0.0710564
0.0704384
0.0698058
0.069162
0.0685103
0.067854
0.0671968
0.066542
0.0658932
0.0652539
0.0646275
0.0640174
0.0634268
0.062859
0.0623167
0.0618026
0.061321
0.0608758
0.0604424
0.0599963
0.00839916
0.00781157
0.00726669
0.00673125
0.0061696
0.00558577
0.00498432
0.00436727
0.00373686
0.00309574
0.00244667
0.00179253
0.00113628
0.000480908
-0.000170578
-0.000815172
-0.00144991
-0.00207189
-0.00267829
-0.00326634
-0.0038334
-0.00437689
-0.00489436
-0.00538347
-0.00584202
-0.00626793
-0.00665924
-0.00701412
-0.00733087
-0.00760793
-0.00784385
-0.00803733
-0.00818718
-0.00829234
-0.00835186
-0.00836494
-0.00833087
-0.00824906
-0.00811904
-0.00794045
-0.00771301
-0.00743658
-0.0071111
-0.00673662
-0.00631325
-0.00584123
-0.00532085
-0.00475251
-0.00413669
-0.00347394
-0.00276491
-0.00201031
-0.00121091
-0.00036757
0.000518787
0.00144718
0.00241654
0.00342577
0.00447369
0.00555907
0.00668063
0.00783705
0.00902693
0.0102489
0.0115013
0.0127828
0.0140918
0.0154267
0.0167858
0.0181674
0.0195699
0.0209914
0.0224302
0.0238845
0.0253524
0.0268322
0.0283219
0.0298196
0.0313234
0.0328314
0.0343416
0.0358521
0.0373608
0.038866
0.0403655
0.0418574
0.0433397
0.0448104
0.0462677
0.0477095
0.049134
0.0505391
0.0519231
0.053284
0.05462
0.0559292
0.05721
0.0584606
0.0596792
0.0608643
0.0620141
0.0631272
0.0642021
0.0652372
0.0662313
0.0671829
0.0680909
0.0689541
0.0697714
0.0705417
0.0712641
0.0719378
0.072562
0.0731361
0.0736595
0.0741317
0.0745524
0.0749214
0.0752385
0.0755037
0.0757172
0.0758791
0.0759899
0.07605
0.07606
0.0760206
0.0759329
0.0757977
0.0756163
0.07539
0.0751201
0.0748083
0.0744562
0.0740658
0.0736391
0.0731781
0.0726851
0.0721626
0.071613
0.071039
0.0704434
0.0698289
0.0691985
0.0685553
0.0679023
0.0672426
0.0665796
0.0659163
0.0652559
0.0646016
0.0639565
0.0633235
0.0627056
0.0621056
0.0615257
0.0609681
0.0604372
0.0599369
0.0594357
0.0589036
0.00951188
0.00883516
0.00821938
0.00762569
0.00701162
0.00638111
0.00573879
0.00508626
0.00442533
0.00375825
0.00308743
0.0024154
0.00174474
0.00107811
0.000418202
-0.000232296
-0.000870721
-0.00149445
-0.00210091
-0.0026876
-0.00325207
-0.00379197
-0.00430506
-0.00478918
-0.00524229
-0.00566247
-0.00604791
-0.00639691
-0.00670789
-0.00697939
-0.00721008
-0.00739872
-0.00754422
-0.00764558
-0.00770193
-0.00771252
-0.00767668
-0.00759388
-0.00746368
-0.00728575
-0.00705984
-0.00678582
-0.00646366
-0.00609342
-0.00567522
-0.00520929
-0.00469595
-0.00413557
-0.00352863
-0.00287569
-0.00217737
-0.00143438
-0.000647472
0.000182511
0.00105467
0.00196803
0.00292158
0.0039142
0.00494477
0.00601208
0.00711488
0.00825187
0.00942169
0.0106229
0.0118542
0.0131139
0.0144006
0.0157128
0.0170487
0.0184067
0.0197852
0.0211825
0.0225968
0.0240263
0.0254692
0.0269238
0.0283882
0.0298605
0.0313388
0.0328213
0.034306
0.0357911
0.0372746
0.0387545
0.040229
0.0416961
0.0431538
0.0446002
0.0460335
0.0474517
0.0488528
0.0502351
0.0515967
0.0529357
0.0542503
0.0555387
0.0567992
0.0580301
0.0592297
0.0603964
0.0615286
0.0626247
0.0636833
0.064703
0.0656824
0.0666202
0.0675151
0.0683661
0.069172
0.0699318
0.0706446
0.0713095
0.0719258
0.0724929
0.0730102
0.0734772
0.0738936
0.0742591
0.0745737
0.0748371
0.0750497
0.0752114
0.0753228
0.0753843
0.0753963
0.0753597
0.0752753
0.075144
0.0749669
0.0747453
0.0744805
0.0741739
0.0738274
0.0734425
0.0730211
0.0725653
0.0720773
0.0715591
0.0710133
0.0704422
0.0698484
0.0692346
0.0686034
0.0679578
0.0673005
0.0666344
0.0659624
0.0652874
0.0646124
0.0639401
0.0632733
0.0626146
0.0619667
0.0613319
0.0607121
0.0601092
0.0595274
0.0589708
0.058401
0.057783
0.0106395
0.00987429
0.00918747
0.00853481
0.00786715
0.00718847
0.00650349
0.00581342
0.00511972
0.00442428
0.0037292
0.00303664
0.00234889
0.0016683
0.000997234
0.000338099
-0.000306718
-0.000934853
-0.00154398
-0.00213181
-0.00269613
-0.0032348
-0.00374576
-0.00422702
-0.00467672
-0.00509309
-0.00547445
-0.00581924
-0.00612601
-0.00639339
-0.00662014
-0.00680514
-0.00694736
-0.00704588
-0.0070999
-0.00710872
-0.00707173
-0.00698845
-0.00685846
-0.00668147
-0.00645727
-0.00618576
-0.00586692
-0.0055008
-0.00508758
-0.00462746
-0.00412077
-0.00356789
-0.0029693
-0.00232555
-0.00163725
-0.000905091
-0.000129833
0.000687706
0.00154664
0.00244603
0.00338485
0.00436204
0.00537648
0.00642699
0.00751235
0.00863128
0.00978246
0.0109645
0.012176
0.0134156
0.0146816
0.0159726
0.017287
0.0186232
0.0199795
0.0213543
0.0227458
0.0241524
0.0255721
0.0270034
0.0284443
0.0298931
0.0313479
0.0328068
0.034268
0.0357295
0.0371896
0.0386463
0.0400976
0.0415418
0.0429768
0.0444009
0.045812
0.0472084
0.0485882
0.0499495
0.0512904
0.0526093
0.0539042
0.0551735
0.0564155
0.0576283
0.0588105
0.0599604
0.0610764
0.062157
0.0632008
0.0642064
0.0651724
0.0660975
0.0669805
0.0678203
0.0686158
0.069366
0.07007
0.0707269
0.0713361
0.0718967
0.0724084
0.0728706
0.0732829
0.0736452
0.0739571
0.0742188
0.0744302
0.0745916
0.0747033
0.0747656
0.074779
0.0747444
0.0746624
0.0745339
0.07436
0.0741419
0.0738808
0.073578
0.0732353
0.0728541
0.0724362
0.0719836
0.0714983
0.0709823
0.0704378
0.0698672
0.0692727
0.0686569
0.0680223
0.0673715
0.066707
0.0660316
0.0653479
0.0646584
0.0639659
0.0632729
0.0625818
0.061895
0.0612147
0.060543
0.0598815
0.0592316
0.0585978
0.0579839
0.0573455
0.0566419
0.011775
0.0109222
0.0101645
0.00945243
0.00873037
0.00800236
0.00727326
0.00654396
0.00581558
0.00508973
0.00436818
0.00365281
0.00294559
0.00224859
0.00156391
0.000893669
0.000240007
-0.000394951
-0.00100911
-0.0016004
-0.00216682
-0.00270641
-0.00321731
-0.0036977
-0.00414587
-0.0045602
-0.00493916
-0.00528132
-0.00558531
-0.00584991
-0.00607397
-0.00625644
-0.00639638
-0.00649296
-0.00654544
-0.00655317
-0.0065156
-0.0064323
-0.00630289
-0.00612712
-0.0059048
-0.00563586
-0.0053203
-0.00495821
-0.00454975
-0.00409516
-0.00359475
-0.00304892
-0.00245814
-0.00182296
-0.00114399
-0.000421912
0.000342525
0.00114852
0.00199519
0.00288161
0.0038068
0.0047697
0.0057692
0.00680417