/*--------------------------------*- C++ -*----------------------------------*\
  =========                 |
  \\      /  F ield         | OpenFOAM: The Open Source CFD Toolbox
   \\    /   O peration     | Website:  https://openfoam.org
    \\  /    A nd           | Version:  7
     \\/     M anipulation  |
\*---------------------------------------------------------------------------*/
FoamFile
{
    version     2.0;
    format      ascii;
    class       surfaceScalarField;
    location    "0.45";
    object      phi;
}
// * * * * * * * * * * * * * * * * * * * * * * * * * * * * * * * * * * * * * //

dimensions      [0 3 -1 0 0 0 0];

internalField   nonuniform List<scalar> 
50880
(
5.86259e-12
-6.3628e-12
3.61475e-11
-3.02953e-11
8.10664e-11
-4.4946e-11
1.30737e-10
-4.96623e-11
1.78025e-10
-4.726e-11
2.17918e-10
-3.98971e-11
2.47005e-10
-2.91018e-11
2.62975e-10
-1.59853e-11
2.64314e-10
-1.33769e-12
2.50056e-10
1.42717e-11
2.19626e-10
3.0433e-11
1.72764e-10
4.68543e-11
1.09436e-10
6.33192e-11
2.9782e-11
7.96556e-11
-6.59392e-11
9.5727e-11
-1.77367e-10
1.11431e-10
-3.04059e-10
1.26691e-10
-4.4551e-10
1.41449e-10
-6.0117e-10
1.55658e-10
-7.7045e-10
1.69281e-10
-9.52739e-10
1.82289e-10
-1.1474e-09
1.94661e-10
-1.35378e-09
2.0638e-10
-1.57122e-09
2.17436e-10
-1.79904e-09
2.27823e-10
-2.03658e-09
2.37536e-10
-2.28315e-09
2.46572e-10
-2.53808e-09
2.54934e-10
-2.8007e-09
2.62624e-10
-3.07035e-09
2.69645e-10
-3.34635e-09
2.76002e-10
-3.62805e-09
2.81703e-10
-3.91481e-09
2.86755e-10
-4.20598e-09
2.91167e-10
-4.50092e-09
2.94947e-10
-4.79903e-09
2.98105e-10
-5.09968e-09
3.00651e-10
-5.40227e-09
3.02596e-10
-5.70622e-09
3.03951e-10
-6.01095e-09
3.04727e-10
-6.31588e-09
3.04936e-10
-6.62047e-09
3.0459e-10
-6.92417e-09
3.03701e-10
-7.22645e-09
3.02281e-10
-7.5268e-09
3.00343e-10
-7.8247e-09
2.97899e-10
-8.11966e-09
2.94962e-10
-8.4112e-09
2.91544e-10
-8.69886e-09
2.8766e-10
-8.98218e-09
2.8332e-10
-9.26072e-09
2.78539e-10
-9.53405e-09
2.73329e-10
-9.80175e-09
2.67703e-10
-1.00634e-08
2.61675e-10
-1.03187e-08
2.55257e-10
-1.05671e-08
2.48463e-10
-1.08085e-08
2.41306e-10
-1.10423e-08
2.33799e-10
-1.12682e-08
2.25956e-10
-1.1486e-08
2.17789e-10
-1.16953e-08
2.09312e-10
-1.18958e-08
2.00538e-10
-1.20873e-08
1.91481e-10
-1.22695e-08
1.82154e-10
-1.2442e-08
1.72571e-10
-1.26048e-08
1.62745e-10
-1.27575e-08
1.52691e-10
-1.28999e-08
1.4242e-10
-1.30319e-08
1.31949e-10
-1.31531e-08
1.2129e-10
-1.32636e-08
1.10458e-10
-1.33631e-08
9.94658e-11
-1.34514e-08
8.83288e-11
-1.35285e-08
7.70609e-11
-1.35941e-08
6.56766e-11
-1.36483e-08
5.41905e-11
-1.36909e-08
4.26173e-11
-1.37219e-08
3.09718e-11
-1.37412e-08
1.9269e-11
-1.37487e-08
7.52403e-12
-1.37445e-08
-4.24782e-12
-1.37284e-08
-1.60312e-11
-1.37006e-08
-2.78106e-11
-1.3661e-08
-3.95703e-11
-1.36098e-08
-5.12946e-11
-1.35468e-08
-6.29675e-11
-1.34722e-08
-7.45729e-11
-1.33861e-08
-8.60946e-11
-1.32886e-08
-9.75163e-11
-1.31798e-08
-1.08821e-10
-1.30598e-08
-1.19994e-10
-1.29288e-08
-1.31016e-10
-1.27869e-08
-1.41872e-10
-1.26344e-08
-1.52544e-10
-1.24713e-08
-1.63016e-10
-1.22981e-08
-1.7327e-10
-1.21148e-08
-1.8329e-10
-1.19217e-08
-1.93058e-10
-1.17192e-08
-2.02558e-10
-1.15074e-08
-2.11772e-10
-1.12867e-08
-2.20684e-10
-1.10574e-08
-2.29276e-10
-1.08199e-08
-2.3753e-10
-1.05745e-08
-2.45432e-10
-1.03215e-08
-2.52962e-10
-1.00614e-08
-2.60106e-10
-9.79456e-09
-2.66845e-10
-9.5214e-09
-2.73165e-10
-9.24235e-09
-2.79048e-10
-8.95787e-09
-2.8448e-10
-8.66843e-09
-2.89443e-10
-8.37451e-09
-2.93923e-10
-8.0766e-09
-2.97904e-10
-7.77523e-09
-3.01373e-10
-7.47092e-09
-3.04314e-10
-7.1642e-09
-3.06713e-10
-6.85565e-09
-3.08557e-10
-6.54581e-09
-3.09833e-10
-6.23529e-09
-3.10529e-10
-5.92465e-09
-3.10631e-10
-5.61452e-09
-3.1013e-10
-5.30551e-09
-3.09013e-10
-4.99824e-09
-3.07272e-10
-4.69334e-09
-3.04896e-10
-4.39147e-09
-3.01877e-10
-4.09326e-09
-2.98207e-10
-3.79938e-09
-2.9388e-10
-3.51049e-09
-2.88889e-10
-3.22727e-09
-2.83229e-10
-2.95037e-09
-2.76897e-10
-2.68048e-09
-2.6989e-10
-2.41828e-09
-2.62206e-10
-2.16443e-09
-2.53847e-10
-1.91962e-09
-2.44815e-10
-1.6845e-09
-2.35113e-10
-1.45976e-09
-2.24747e-10
-1.24603e-09
-2.13727e-10
-1.04397e-09
-2.02064e-10
-8.54194e-10
-1.89773e-10
-6.77323e-10
-1.76872e-10
-5.13938e-10
-1.63384e-10
-3.64598e-10
-1.4934e-10
-2.29822e-10
-1.34775e-10
-1.10087e-10
-1.19734e-10
-5.81195e-12
-1.04274e-10
8.26501e-11
-8.84619e-11
1.55034e-10
-7.23843e-11
2.11182e-10
-5.61494e-11
2.51077e-10
-3.98947e-11
2.74875e-10
-2.37972e-11
2.82963e-10
-8.08675e-12
2.76032e-10
6.93279e-12
2.5518e-10
2.0853e-11
2.22064e-10
3.31157e-11
1.79119e-10
4.29423e-11
1.29874e-10
4.92437e-11
7.93461e-11
5.05273e-11
3.4609e-11
4.47412e-11
5.32039e-12
2.92972e-11
5.3231e-12
3.00113e-11
-3.63815e-11
1.01153e-10
-1.01452e-10
1.95439e-10
-1.39249e-10
2.95797e-10
-1.50034e-10
3.87882e-10
-1.39328e-10
4.60426e-10
-1.12428e-10
5.04977e-10
-7.36472e-11
5.15346e-10
-2.6362e-11
4.87144e-10
2.68503e-11
4.17376e-10
8.40344e-11
3.04115e-10
1.43699e-10
1.46275e-10
2.04705e-10
-5.65823e-11
2.66181e-10
-3.04381e-10
3.2745e-10
-5.9664e-10
3.8798e-10
-9.32563e-10
4.47349e-10
-1.3111e-09
5.05226e-10
-1.731e-09
5.6135e-10
-2.19085e-09
6.15513e-10
-2.68913e-09
6.67553e-10
-3.22418e-09
7.17342e-10
-3.7943e-09
7.64779e-10
-4.39771e-09
8.0979e-10
-5.03259e-09
8.52317e-10
-5.69709e-09
8.92321e-10
-6.38933e-09
9.29775e-10
-7.10742e-09
9.64663e-10
-7.84946e-09
9.96979e-10
-8.61356e-09
1.02673e-09
-9.39783e-09
1.05391e-09
-1.02004e-08
1.07855e-09
-1.10193e-08
1.10067e-09
-1.18529e-08
1.12028e-09
-1.26991e-08
1.13742e-09
-1.35563e-08
1.15212e-09
-1.44226e-08
1.16441e-09
-1.52963e-08
1.17432e-09
-1.61756e-08
1.18191e-09
-1.70588e-08
1.1872e-09
-1.79443e-08
1.19025e-09
-1.88305e-08
1.19108e-09
-1.97156e-08
1.18976e-09
-2.05983e-08
1.18631e-09
-2.14768e-08
1.1808e-09
-2.23497e-08
1.17327e-09
-2.32156e-08
1.16375e-09
-2.40729e-08
1.15232e-09
-2.49204e-08
1.139e-09
-2.57566e-08
1.12386e-09
-2.65802e-08
1.10694e-09
-2.73899e-08
1.08829e-09
-2.81846e-08
1.06796e-09
-2.89628e-08
1.046e-09
-2.97236e-08
1.02247e-09
-3.04658e-08
9.97408e-10
-3.11882e-08
9.70875e-10
-3.18898e-08
9.42919e-10
-3.25696e-08
9.13592e-10
-3.32266e-08
8.82945e-10
-3.38598e-08
8.5103e-10
-3.44684e-08
8.179e-10
-3.50515e-08
7.83607e-10
-3.56082e-08
7.48204e-10
-3.61378e-08
7.11743e-10
-3.66395e-08
6.74278e-10
-3.71126e-08
6.35862e-10
-3.75565e-08
5.96549e-10
-3.79705e-08
5.56393e-10
-3.8354e-08
5.15449e-10
-3.87064e-08
4.7377e-10
-3.90274e-08
4.31412e-10
-3.93164e-08
3.88432e-10
-3.95729e-08
3.44884e-10
-3.97967e-08
3.00825e-10
-3.99873e-08
2.56311e-10
-4.01445e-08
2.11402e-10
-4.02681e-08
1.66153e-10
-4.03577e-08
1.20623e-10
-4.04133e-08
7.48725e-11
-4.04348e-08
2.89592e-11
-4.04219e-08
-1.70565e-11
-4.03749e-08
-6.31141e-11
-4.02935e-08
-1.09153e-10
-4.0178e-08
-1.55111e-10
-4.00283e-08
-2.00927e-10
-3.98448e-08
-2.46537e-10
-3.96275e-08
-2.9188e-10
-3.93767e-08
-3.36891e-10
-3.90927e-08
-3.81506e-10
-3.87758e-08
-4.25661e-10
-3.84266e-08
-4.69291e-10
-3.80452e-08
-5.12331e-10
-3.76324e-08
-5.54715e-10
-3.71886e-08
-5.96378e-10
-3.67143e-08
-6.37253e-10
-3.62103e-08
-6.77273e-10
-3.56772e-08
-7.16373e-10
-3.51158e-08
-7.54486e-10
-3.45268e-08
-7.91545e-10
-3.39111e-08
-8.27484e-10
-3.32696e-08
-8.62236e-10
-3.26031e-08
-8.95735e-10
-3.19127e-08
-9.27915e-10
-3.11994e-08
-9.5871e-10
-3.04643e-08
-9.88056e-10
-2.97086e-08
-1.01589e-09
-2.89333e-08
-1.04214e-09
-2.81397e-08
-1.06675e-09
-2.73291e-08
-1.08966e-09
-2.65028e-08
-1.1108e-09
-2.56621e-08
-1.13011e-09
-2.48085e-08
-1.14754e-09
-2.39433e-08
-1.16303e-09
-2.30682e-08
-1.17651e-09
-2.21846e-08
-1.18794e-09
-2.1294e-08
-1.19727e-09
-2.03981e-08
-1.20443e-09
-1.94986e-08
-1.20938e-09
-1.85971e-08
-1.21207e-09
-1.76952e-08
-1.21246e-09
-1.67949e-08
-1.21051e-09
-1.58977e-08
-1.20617e-09
-1.50056e-08
-1.1994e-09
-1.41203e-08
-1.19018e-09
-1.32437e-08
-1.17847e-09
-1.23777e-08
-1.16424e-09
-1.15241e-08
-1.14748e-09
-1.06848e-08
-1.12815e-09
-9.86179e-09
-1.10624e-09
-9.05693e-09
-1.08175e-09
-8.27215e-09
-1.05467e-09
-7.50937e-09
-1.02499e-09
-6.77048e-09
-9.92735e-10
-6.05739e-09
-9.57905e-10
-5.37198e-09
-9.20527e-10
-4.7161e-09
-8.80633e-10
-4.09156e-09
-8.38264e-10
-3.50015e-09
-7.93475e-10
-2.94359e-09
-7.46335e-10
-2.42353e-09
-6.96928e-10
-1.94155e-09
-6.45361e-10
-1.49913e-09
-5.91762e-10
-1.09762e-09
-5.36289e-10
-7.38217e-10
-4.79135e-10
-4.21955e-10
-4.20535e-10
-1.49635e-10
-3.6078e-10
7.82116e-11
-3.00229e-10
2.6139e-10
-2.39327e-10
4.00124e-10
-1.78628e-10
4.95161e-10
-1.18835e-10
5.4791e-10
-6.08358e-11
5.60616e-10
-5.77351e-12
5.36598e-10
4.4872e-11
4.80546e-10
8.91695e-11
3.98904e-10
1.2459e-10
3.00303e-10
1.4785e-10
1.9601e-10
1.5482e-10
1.00173e-10
1.40566e-10
2.9264e-11
1.00188e-10
3.45946e-11
4.48101e-11
-8.12213e-11
1.39114e-10
-1.95736e-10
2.56401e-10
-2.56508e-10
3.75023e-10
-2.68648e-10
4.76702e-10
-2.41017e-10
5.46562e-10
-1.82299e-10
5.72905e-10
-9.99839e-11
5.46765e-10
-2.10158e-13
4.61503e-10
1.12119e-10
3.12376e-10
2.33158e-10
9.61918e-11
3.59876e-10
-1.88998e-10
4.89891e-10
-5.44146e-10
6.21329e-10
-9.69399e-10
7.52702e-10
-1.46425e-09
8.82827e-10
-2.02766e-09
1.01076e-09
-2.65818e-09
1.13574e-09
-3.354e-09
1.25717e-09
-4.11304e-09
1.37456e-09
-4.93301e-09
1.48752e-09
-5.81141e-09
1.59574e-09
-6.74562e-09
1.69899e-09
-7.7329e-09
1.79707e-09
-8.77042e-09
1.88984e-09
-9.85528e-09
1.97718e-09
-1.09845e-08
2.05904e-09
-1.21552e-08
2.13534e-09
-1.33643e-08
2.20608e-09
-1.46088e-08
2.27124e-09
-1.58857e-08
2.33083e-09
-1.71921e-08
2.38487e-09
-1.85248e-08
2.43339e-09
-1.9881e-08
2.47645e-09
-2.12576e-08
2.5141e-09
-2.26519e-08
2.5464e-09
-2.40609e-08
2.57342e-09
-2.54818e-08
2.59523e-09
-2.69119e-08
2.61192e-09
-2.83482e-08
2.62356e-09
-2.97882e-08
2.63026e-09
-3.12292e-08
2.63209e-09
-3.26686e-08
2.62916e-09
-3.41039e-08
2.62157e-09
-3.55325e-08
2.60941e-09
-3.6952e-08
2.59278e-09
-3.83601e-08
2.57179e-09
-3.97543e-08
2.54655e-09
-4.11324e-08
2.51716e-09
-4.24923e-08
2.48373e-09
-4.38317e-08
2.44636e-09
-4.51486e-08
2.40518e-09
-4.6441e-08
2.36028e-09
-4.77067e-08
2.31178e-09
-4.89441e-08
2.25979e-09
-5.01511e-08
2.20442e-09
-5.1326e-08
2.14579e-09
-5.24671e-08
2.08401e-09
-5.35727e-08
2.0192e-09
-5.46412e-08
1.95146e-09
-5.56711e-08
1.88091e-09
-5.66609e-08
1.80768e-09
-5.76091e-08
1.73186e-09
-5.85145e-08
1.65359e-09
-5.93757e-08
1.57298e-09
-6.01916e-08
1.49014e-09
-6.09609e-08
1.4052e-09
-6.16827e-08
1.31828e-09
-6.23558e-08
1.22948e-09
-6.29793e-08
1.13895e-09
-6.35523e-08
1.04678e-09
-6.4074e-08
9.53122e-10
-6.45436e-08
8.58081e-10
-6.49605e-08
7.61787e-10
-6.53241e-08
6.64365e-10
-6.56337e-08
5.65941e-10
-6.58889e-08
4.66642e-10
-6.60894e-08
3.66596e-10
-6.62347e-08
2.65934e-10
-6.63246e-08
1.64785e-10
-6.63589e-08
6.32817e-11
-6.63375e-08
-3.84432e-11
-6.62604e-08
-1.40256e-10
-6.61275e-08
-2.42021e-10
-6.5939e-08
-3.43602e-10
-6.56951e-08
-4.44862e-10
-6.5396e-08
-5.45662e-10
-6.5042e-08
-6.45863e-10
-6.46336e-08
-7.45324e-10
-6.41712e-08
-8.43903e-10
-6.36554e-08
-9.41457e-10
-6.30868e-08
-1.03784e-09
-6.24662e-08
-1.13292e-09
-6.17944e-08
-1.22654e-09
-6.10722e-08
-1.31855e-09
-6.03007e-08
-1.40882e-09
-5.94808e-08
-1.49719e-09
-5.86136e-08
-1.58353e-09
-5.77004e-08
-1.66767e-09
-5.67425e-08
-1.74948e-09
-5.57412e-08
-1.8288e-09
-5.46979e-08
-1.9055e-09
-5.36142e-08
-1.97943e-09
-5.24917e-08
-2.05044e-09
-5.1332e-08
-2.11838e-09
-5.0137e-08
-2.18312e-09
-4.89083e-08
-2.24451e-09
-4.76481e-08
-2.30241e-09
-4.63581e-08
-2.35668e-09
-4.50406e-08
-2.40719e-09
-4.36976e-08
-2.4538e-09
-4.23313e-08
-2.49638e-09
-4.09441e-08
-2.5348e-09
-3.95382e-08
-2.56894e-09
-3.8116e-08
-2.59866e-09
-3.66801e-08
-2.62385e-09
-3.5233e-08
-2.64439e-09
-3.37772e-08
-2.66018e-09
-3.23155e-08
-2.6711e-09
-3.08505e-08
-2.67706e-09
-2.9385e-08
-2.67795e-09
-2.79219e-08
-2.67368e-09
-2.64639e-08
-2.66417e-09
-2.50139e-08
-2.64934e-09
-2.3575e-08
-2.62911e-09
-2.215e-08
-2.60343e-09
-2.0742e-08
-2.57223e-09
-1.93541e-08
-2.53547e-09
-1.79891e-08
-2.49311e-09
-1.66502e-08
-2.44512e-09
-1.53405e-08
-2.39148e-09
-1.4063e-08
-2.33219e-09
-1.28207e-08
-2.26727e-09
-1.16167e-08
-2.19672e-09
-1.0454e-08
-2.12059e-09
-9.3356e-09
-2.03895e-09
-8.26435e-09
-1.95188e-09
-7.24314e-09
-1.85948e-09
-6.27474e-09
-1.76188e-09
-5.36181e-09
-1.65926e-09
-4.50693e-09
-1.55181e-09
-3.71249e-09
-1.4398e-09
-2.98072e-09
-1.32353e-09
-2.31365e-09
-1.20336e-09
-1.71304e-09
-1.07975e-09
-1.18033e-09
-9.53235e-10
-7.16624e-10
-8.2449e-10
-3.22532e-10
-6.94321e-10
1.86267e-12
-5.63723e-10
2.57155e-10
-4.33921e-10
4.44761e-10
-3.06438e-10
5.67103e-10
-1.83174e-10
6.27845e-10
-6.65124e-11
6.32175e-10
4.05442e-11
5.87142e-10
1.34204e-10
5.02038e-10
2.09697e-10
3.88785e-10
2.61105e-10
2.62293e-10
2.81315e-10
1.40602e-10
2.62262e-10
4.47141e-11
1.96063e-10
7.9311e-11
4.9692e-11
-1.30927e-10
1.50292e-10
-2.9634e-10
2.69199e-10
-3.75401e-10
3.81203e-10
-3.80648e-10
4.65492e-10
-3.25318e-10
5.05004e-10
-2.21824e-10
4.86024e-10
-8.10045e-11
3.97771e-10
8.80501e-11
2.32004e-10
2.7789e-10
-1.73329e-11
4.82493e-10
-3.54469e-10
6.97007e-10
-7.82111e-10
9.17534e-10
-1.30171e-09
1.14093e-09
-1.91369e-09
1.36468e-09
-2.61759e-09
1.58673e-09
-3.41228e-09
1.80544e-09
-4.296e-09
2.01946e-09
-5.26656e-09
2.22772e-09
-6.32134e-09
2.42934e-09
-7.45743e-09
2.6236e-09
-8.67163e-09
2.80994e-09
-9.96054e-09
2.9879e-09
-1.13206e-08
3.15712e-09
-1.27481e-08
3.31733e-09
-1.42392e-08
3.46829e-09
-1.579e-08
3.60987e-09
-1.73967e-08
3.74196e-09
-1.9055e-08
3.86447e-09
-2.07612e-08
3.97739e-09
-2.25111e-08
4.08071e-09
-2.43007e-08
4.17446e-09
-2.6126e-08
4.25868e-09
-2.79829e-08
4.33344e-09
-2.98677e-08
4.39882e-09
-3.17762e-08
4.45493e-09
-3.37046e-08
4.50187e-09
-3.56492e-08
4.53976e-09
-3.7606e-08
4.56874e-09
-3.95714e-08
4.58896e-09
-4.15417e-08
4.60054e-09
-4.35132e-08
4.60367e-09
-4.54826e-08
4.59848e-09
-4.74462e-08
4.58516e-09
-4.94006e-08
4.56387e-09
-5.13426e-08
4.53479e-09
-5.32689e-08
4.49809e-09
-5.51763e-08
4.45395e-09
-5.70617e-08
4.40257e-09
-5.89221e-08
4.34411e-09
-6.07545e-08
4.27879e-09
-6.25561e-08
4.20677e-09
-6.43241e-08
4.12826e-09
-6.60558e-08
4.04345e-09
-6.77485e-08
3.95253e-09
-6.93998e-08
3.8557e-09
-7.10072e-08
3.75316e-09
-7.25682e-08
3.64509e-09
-7.40807e-08
3.53172e-09
-7.55425e-08
3.41322e-09
-7.69514e-08
3.28981e-09
-7.83054e-08
3.16168e-09
-7.96026e-08
3.02904e-09
-8.08411e-08
2.8921e-09
-8.20192e-08
2.75105e-09
-8.31351e-08
2.60612e-09
-8.41874e-08
2.45749e-09
-8.51745e-08
2.30539e-09
-8.60951e-08
2.15002e-09
-8.69477e-08
1.9916e-09
-8.77313e-08
1.83034e-09
-8.84446e-08
1.66645e-09
-8.90867e-08
1.50015e-09
-8.96566e-08
1.33166e-09
-9.01534e-08
1.1612e-09
-9.05764e-08
9.88989e-10
-9.09251e-08
8.15251e-10
-9.11987e-08
6.40212e-10
-9.13968e-08
4.64098e-10
-9.15192e-08
2.8714e-10
-9.15655e-08
1.09569e-10
-9.15355e-08
-6.83831e-11
-9.14293e-08
-2.46481e-10
-9.12468e-08
-4.24486e-10
-9.09883e-08
-6.02162e-10
-9.06539e-08
-7.79266e-10
-9.0244e-08
-9.55556e-10
-8.97591e-08
-1.13079e-09
-8.91997e-08
-1.30471e-09
-8.85665e-08
-1.47709e-09
-8.78603e-08
-1.64766e-09
-8.7082e-08
-1.81618e-09
-8.62325e-08
-1.98239e-09
-8.5313e-08
-2.14604e-09
-8.43247e-08
-2.30688e-09
-8.32688e-08
-2.46466e-09
-8.21469e-08
-2.61911e-09
-8.09605e-08
-2.76998e-09
-7.97111e-08
-2.91701e-09
-7.84006e-08
-3.05995e-09
-7.70309e-08
-3.19855e-09
-7.56039e-08
-3.33254e-09
-7.41216e-08
-3.46168e-09
-7.25863e-08
-3.58571e-09
-7.10003e-08
-3.70438e-09
-6.9366e-08
-3.81744e-09
-6.76859e-08
-3.92465e-09
-6.59625e-08
-4.02576e-09
-6.41987e-08
-4.12052e-09
-6.23972e-08
-4.20871e-09
-6.05609e-08
-4.29009e-09
-5.86929e-08
-4.36443e-09
-5.67962e-08
-4.4315e-09
-5.4874e-08
-4.4911e-09
-5.29297e-08
-4.54299e-09
-5.09665e-08
-4.58699e-09
-4.8988e-08
-4.62288e-09
-4.69977e-08
-4.65049e-09
-4.49992e-08
-4.66961e-09
-4.29962e-08
-4.68009e-09
-4.09924e-08
-4.68174e-09
-3.89916e-08
-4.67443e-09
-3.69978e-08
-4.658e-09
-3.50148e-08
-4.63232e-09
-3.30467e-08
-4.59727e-09
-3.10974e-08
-4.55275e-09
-2.91709e-08
-4.49865e-09
-2.72715e-08
-4.43492e-09
-2.54031e-08
-4.36148e-09
-2.35699e-08
-4.2783e-09
-2.17761e-08
-4.18536e-09
-2.00256e-08
-4.08267e-09
-1.83226e-08
-3.97024e-09
-1.66712e-08
-3.84814e-09
-1.50753e-08
-3.71646e-09
-1.3539e-08
-3.57531e-09
-1.2066e-08
-3.42485e-09
-1.06602e-08
-3.26529e-09
-9.32519e-09
-3.09689e-09
-8.06449e-09
-2.91996e-09
-6.88143e-09
-2.73488e-09
-5.77911e-09
-2.54212e-09
-4.76039e-09
-2.34225e-09
-3.82783e-09
-2.13592e-09
-2.98361e-09
-1.92396e-09
-2.2295e-09
-1.70735e-09
-1.56674e-09
-1.48725e-09
-9.95968e-10
-1.2651e-09
-5.17073e-10
-1.04262e-09
-1.29075e-10
-8.21918e-10
1.70065e-10
-6.05576e-10
3.83645e-10
-3.96753e-10
5.16475e-10
-1.99344e-10
5.7516e-10
-1.81446e-11
5.68424e-10
1.40937e-10
5.0745e-10
2.70672e-10
4.06227e-10
3.62329e-10
2.81906e-10
4.05639e-10
1.55121e-10
3.8905e-10
5.05729e-11
3.0061e-10
1.29881e-10
4.75079e-11
-1.78416e-10
1.40245e-10
-3.89087e-10
2.42765e-10
-4.77925e-10
3.27677e-10
-4.65558e-10
3.72605e-10
-3.70247e-10
3.5919e-10
-2.08411e-10
2.72516e-10
5.66758e-12
1.00677e-10
2.59889e-10
-1.65597e-10
5.44166e-10
-5.3328e-10
8.50174e-10
-1.00736e-09
1.17109e-09
-1.59115e-09
1.50131e-09
-2.2865e-09
1.83629e-09
-3.09408e-09
2.17226e-09
-4.01353e-09
2.50618e-09
-5.04363e-09
2.83554e-09
-6.18246e-09
3.15829e-09
-7.42749e-09
3.47275e-09
-8.7757e-09
3.77755e-09
-1.02237e-08
4.07155e-09
-1.17676e-08
4.35386e-09
-1.34034e-08
4.62372e-09
-1.51268e-08
4.88056e-09
-1.69334e-08
5.1239e-09
-1.88185e-08
5.35339e-09
-2.07774e-08
5.56874e-09
-2.28052e-08
5.76978e-09
-2.48971e-08
5.95636e-09
-2.70481e-08
6.12841e-09
-2.92533e-08
6.28591e-09
-3.15077e-08
6.42887e-09
-3.38063e-08
6.55734e-09
-3.61443e-08
6.67141e-09
-3.85167e-08
6.7712e-09
-4.09186e-08
6.85682e-09
-4.33452e-08
6.92845e-09
-4.57917e-08
6.98627e-09
-4.82534e-08
7.03045e-09
-5.07256e-08
7.06121e-09
-5.32038e-08
7.07877e-09
-5.56835e-08
7.08335e-09
-5.81603e-08
7.07521e-09
-6.06297e-08
7.05458e-09
-6.30875e-08
7.02172e-09
-6.55296e-08
6.9769e-09
-6.79519e-08
6.92038e-09
-7.03504e-08
6.85244e-09
-7.27212e-08
6.77336e-09
-7.50605e-08
6.68342e-09
-7.73646e-08
6.5829e-09
-7.963e-08
6.4721e-09
-8.1853e-08
6.35131e-09
-8.40304e-08
6.22082e-09
-8.61588e-08
6.08093e-09
-8.8235e-08
5.93195e-09
-9.0256e-08
5.77416e-09
-9.22188e-08
5.60789e-09
-9.41205e-08
5.43342e-09
-9.59584e-08
5.25108e-09
-9.77298e-08
5.06117e-09
-9.94321e-08
4.86399e-09
-1.01063e-07
4.65987e-09
-1.0262e-07
4.44912e-09
-1.04101e-07
4.23206e-09
-1.05504e-07
4.009e-09
-1.06827e-07
3.78027e-09
-1.08067e-07
3.54618e-09
-1.09224e-07
3.30706e-09
-1.10296e-07
3.06325e-09
-1.11281e-07
2.81506e-09
-1.12177e-07
2.56283e-09
-1.12984e-07
2.3069e-09
-1.137e-07
2.04759e-09
-1.14324e-07
1.78526e-09
-1.14855e-07
1.52024e-09
-1.15293e-07
1.25288e-09
-1.15636e-07
9.83519e-10
-1.15884e-07
7.12516e-10
-1.16038e-07
4.40222e-10
-1.16095e-07
1.66993e-10
-1.16057e-07
-1.0681e-10
-1.15922e-07
-3.80827e-10
-1.15692e-07
-6.5469e-10
-1.15366e-07
-9.28033e-10
-1.14945e-07
-1.20048e-09
-1.14429e-07
-1.47167e-09
-1.13818e-07
-1.74121e-09
-1.13114e-07
-2.00873e-09
-1.12318e-07
-2.27385e-09
-1.11429e-07
-2.53618e-09
-1.1045e-07
-2.79533e-09
-1.09381e-07
-3.05093e-09
-1.08225e-07
-3.30258e-09
-1.06982e-07
-3.54988e-09
-1.05654e-07
-3.79245e-09
-1.04243e-07
-4.0299e-09
-1.02751e-07
-4.26183e-09
-1.01181e-07
-4.48785e-09
-9.9533e-08
-4.70757e-09
-9.78109e-08
-4.92059e-09
-9.60169e-08
-5.12652e-09
-9.41536e-08
-5.32498e-09
-9.22238e-08
-5.51558e-09
-9.02302e-08
-5.69793e-09
-8.8176e-08
-5.87165e-09
-8.60643e-08
-6.03638e-09
-8.38983e-08
-6.19172e-09
-8.16815e-08
-6.33732e-09
-7.94174e-08
-6.47281e-09
-7.71097e-08
-6.59784e-09
-7.4762e-08
-6.71206e-09
-7.23784e-08
-6.81513e-09
-6.99628e-08
-6.90671e-09
-6.75193e-08
-6.98649e-09
-6.50521e-08
-7.05415e-09
-6.25656e-08
-7.10938e-09
-6.00642e-08
-7.15191e-09
-5.75524e-08
-7.18145e-09
-5.50347e-08
-7.19773e-09
-5.2516e-08
-7.20052e-09
-5.00008e-08
-7.18958e-09
-4.74941e-08
-7.16469e-09
-4.50008e-08
-7.12566e-09
-4.25258e-08
-7.07232e-09
-4.0074e-08
-7.0045e-09
-3.76506e-08
-6.92209e-09
-3.52605e-08
-6.82497e-09
-3.29089e-08
-6.71306e-09
-3.06009e-08
-6.58633e-09
-2.83415e-08
-6.44474e-09
-2.61359e-08
-6.28834e-09
-2.39889e-08
-6.11717e-09
-2.19058e-08
-5.93134e-09
-1.98912e-08
-5.731e-09
-1.79502e-08
-5.51636e-09
-1.60873e-08
-5.28769e-09
-1.43073e-08
-5.04534e-09
-1.26145e-08
-4.78971e-09
-1.10131e-08
-4.52133e-09
-9.50716e-09
-4.24081e-09
-8.10038e-09
-3.9489e-09
-6.79613e-09
-3.6465e-09
-5.59739e-09
-3.33465e-09
-4.50671e-09
-3.01464e-09
-3.52606e-09
-2.68799e-09
-2.6568e-09
-2.35651e-09
-1.89952e-09
-2.02237e-09
-1.25394e-09
-1.6882e-09
-7.1873e-10
-1.35713e-09
-2.91334e-10
-1.03297e-09
3.22281e-11
-7.20314e-10
2.57616e-10
-4.2473e-10
3.92431e-10
-1.52958e-10
4.46508e-10
8.68596e-11
4.32228e-10
2.8495e-10
3.6485e-10
4.29705e-10
2.6291e-10
5.07579e-10
1.48739e-10
5.03221e-10
4.94533e-11
3.99901e-10
1.7933e-10
4.0414e-11
-2.18811e-10
1.14251e-10
-4.62927e-10
1.8577e-10
-5.49457e-10
2.26817e-10
-5.06614e-10
2.14353e-10
-3.57779e-10
1.29408e-10
-1.23457e-10
-4.353e-11
1.78611e-10
-3.16972e-10
5.33327e-10
-7.00775e-10
9.27964e-10
-1.20247e-09
1.35187e-09
-1.82754e-09
1.79616e-09
-2.57969e-09
2.25347e-09
-3.46109e-09
2.71768e-09
-4.47258e-09
3.18374e-09
-5.61385e-09
3.64745e-09
-6.88365e-09
4.10534e-09
-8.27989e-09
4.55453e-09
-9.79978e-09
4.99265e-09
-1.144e-08
5.41773e-09
-1.31966e-08
5.82816e-09
-1.50653e-08
6.2226e-09
-1.70416e-08
6.59998e-09
-1.91204e-08
6.95942e-09
-2.12968e-08
7.30021e-09
-2.35652e-08
7.62181e-09
-2.59202e-08
7.92379e-09
-2.83563e-08
8.20583e-09
-3.08676e-08
8.46773e-09
-3.34486e-08
8.70934e-09
-3.60932e-08
8.93059e-09
-3.87958e-08
9.13147e-09
-4.15506e-08
9.31205e-09
-4.43515e-08
9.47241e-09
-4.7193e-08
9.61269e-09
-5.00693e-08
9.73306e-09
-5.29745e-08
9.83373e-09
-5.59032e-08
9.91492e-09
-5.88497e-08
9.97691e-09
-6.18084e-08
1.002e-08
-6.4774e-08
1.00444e-08
-6.77411e-08
1.00505e-08
-7.07044e-08
1.00386e-08
-7.36589e-08
1.0009e-08
-7.65993e-08
9.96215e-09
-7.95208e-08
9.89837e-09
-8.24184e-08
9.81803e-09
-8.52875e-08
9.72152e-09
-8.81233e-08
9.60923e-09
-9.09215e-08
9.48154e-09
-9.36774e-08
9.33887e-09
-9.6387e-08
9.18162e-09
-9.90459e-08
9.01021e-09
-1.0165e-07
8.82504e-09
-1.04196e-07
8.62654e-09
-1.06679e-07
8.41513e-09
-1.09096e-07
8.19124e-09
-1.11443e-07
7.95529e-09
-1.13718e-07
7.70773e-09
-1.15916e-07
7.44899e-09
-1.18034e-07
7.1795e-09
-1.2007e-07
6.8997e-09
-1.2202e-07
6.61005e-09
-1.23882e-07
6.31099e-09
-1.25653e-07
6.00296e-09
-1.2733e-07
5.68643e-09
-1.28912e-07
5.36183e-09
-1.30395e-07
5.02965e-09
-1.31778e-07
4.69033e-09
-1.33059e-07
4.34434e-09
-1.34236e-07
3.99215e-09
-1.35308e-07
3.63423e-09
-1.36272e-07
3.27106e-09
-1.37128e-07
2.90311e-09
-1.37873e-07
2.53087e-09
-1.38508e-07
2.15482e-09
-1.3903e-07
1.77546e-09
-1.3944e-07
1.39328e-09
-1.39736e-07
1.00878e-09
-1.39919e-07
6.22454e-10
-1.39986e-07
2.34817e-10
-1.3994e-07
-1.53622e-10
-1.39778e-07
-5.42348e-10
-1.39502e-07
-9.30842e-10
-1.39111e-07
-1.31858e-09
-1.38607e-07
-1.70504e-09
-1.37989e-07
-2.08968e-09
-1.37258e-07
-2.47198e-09
-1.36415e-07
-2.85139e-09
-1.35462e-07
-3.22737e-09
-1.34399e-07
-3.59938e-09
-1.33227e-07
-3.96687e-09
-1.31949e-07
-4.3293e-09
-1.30565e-07
-4.6861e-09
-1.29078e-07
-5.03674e-09
-1.2749e-07
-5.38064e-09
-1.25803e-07
-5.71726e-09
-1.24019e-07
-6.04604e-09
-1.2214e-07
-6.36643e-09
-1.2017e-07
-6.67786e-09
-1.18111e-07
-6.97979e-09
-1.15965e-07
-7.27167e-09
-1.13737e-07
-7.55293e-09
-1.1143e-07
-7.82305e-09
-1.09046e-07
-8.08147e-09
-1.0659e-07
-8.32766e-09
-1.04066e-07
-8.56108e-09
-1.01476e-07
-8.78122e-09
-9.8826e-08
-8.98756e-09
-9.61192e-08
-9.17957e-09
-9.33603e-08
-9.35677e-09
-9.05537e-08
-9.51867e-09
-8.7704e-08
-9.66479e-09
-8.48161e-08
-9.79465e-09
-8.18948e-08
-9.90782e-09
-7.89451e-08
-1.00038e-08
-7.59721e-08
-1.00823e-08
-7.29812e-08
-1.01428e-08
-6.99777e-08
-1.0185e-08
-6.6967e-08
-1.02084e-08
-6.39547e-08
-1.02128e-08
-6.09465e-08
-1.01978e-08
-5.7948e-08
-1.01632e-08
-5.4965e-08
-1.01086e-08
-5.20035e-08
-1.00339e-08
-4.90692e-08
-9.93873e-09
-4.61683e-08
-9.82307e-09
-4.33065e-08
-9.68672e-09
-4.049e-08
-9.52959e-09
-3.77247e-08
-9.35165e-09
-3.50165e-08
-9.15288e-09
-3.23715e-08
-8.93333e-09
-2.97956e-08
-8.69312e-09
-2.72945e-08
-8.43241e-09
-2.48741e-08
-8.15145e-09
-2.25399e-08
-7.85056e-09
-2.02974e-08
-7.53014e-09
-1.8152e-08
-7.19073e-09
-1.61088e-08
-6.83293e-09
-1.41726e-08
-6.45752e-09
-1.2348e-08
-6.0654e-09
-1.06393e-08
-5.65766e-09
-9.05021e-09
-5.23559e-09
-7.58413e-09
-4.80073e-09
-6.24387e-09
-4.3549e-09
-5.03161e-09
-3.90025e-09
-3.94878e-09
-3.43935e-09
-2.99593e-09
-2.97522e-09
-2.17265e-09
-2.51148e-09
-1.47734e-09
-2.05244e-09
-9.0707e-10
-1.60324e-09
-4.5738e-10
-1.17e-09
-1.22041e-10
-7.60067e-10
1.07183e-10
-3.82181e-10
2.40797e-10
-4.67539e-11
2.91863e-10
2.33883e-10
2.76331e-10
4.45236e-10
2.13465e-10
5.70445e-10
1.26445e-10
5.90238e-10
4.34234e-11
4.82928e-10
2.2275e-10
2.99537e-11
-2.48762e-10
7.65937e-11
-5.09557e-10
1.05614e-10
-5.78487e-10
8.93021e-11
-4.90309e-10
4.7462e-12
-2.73224e-10
-1.67025e-10
4.83197e-11
-4.41634e-10
4.53221e-10
-8.31768e-10
9.23456e-10
-1.34752e-09
1.44371e-09
-1.99666e-09
2.00101e-09
-2.78493e-09
2.58443e-09
-3.71625e-09
3.18478e-09
-4.79293e-09
3.79437e-09
-6.01592e-09
4.40673e-09
-7.38493e-09
5.01646e-09
-8.89863e-09
5.61903e-09
-1.05548e-08
6.21068e-09
-1.23504e-08
6.78824e-09
-1.42817e-08
7.34908e-09
-1.63446e-08
7.89103e-09
-1.85343e-08
8.41228e-09
-2.08456e-08
8.91133e-09
-2.32732e-08
9.38698e-09
-2.58112e-08
9.83824e-09
-2.84537e-08
1.02643e-08
-3.11946e-08
1.06646e-08
-3.40274e-08
1.10387e-08
-3.69459e-08
1.13862e-08
-3.99434e-08
1.17068e-08
-4.30133e-08
1.20006e-08
-4.61492e-08
1.22674e-08
-4.93444e-08
1.25072e-08
-5.25921e-08
1.27202e-08
-5.58859e-08
1.29065e-08
-5.92192e-08
1.30663e-08
-6.25854e-08
1.32e-08
-6.59781e-08
1.33076e-08
-6.93909e-08
1.33897e-08
-7.28175e-08
1.34465e-08
-7.62516e-08
1.34784e-08
-7.9687e-08
1.34859e-08
-8.31178e-08
1.34694e-08
-8.6538e-08
1.34292e-08
-8.99418e-08
1.33659e-08
-9.33234e-08
1.328e-08
-9.66773e-08
1.31719e-08
-9.99979e-08
1.30422e-08
-1.0328e-07
1.28913e-08
-1.06518e-07
1.27198e-08
-1.09708e-07
1.25282e-08
-1.12843e-07
1.23171e-08
-1.1592e-07
1.20871e-08
-1.18933e-07
1.18385e-08
-1.21879e-07
1.15721e-08
-1.24752e-07
1.12884e-08
-1.27549e-07
1.0988e-08
-1.30265e-07
1.06714e-08
-1.32897e-07
1.03391e-08
-1.3544e-07
9.99194e-09
-1.3789e-07
9.63032e-09
-1.40246e-07
9.25487e-09
-1.42502e-07
8.86619e-09
-1.44656e-07
8.46489e-09
-1.46704e-07
8.05156e-09
-1.48645e-07
7.62681e-09
-1.50474e-07
7.19126e-09
-1.5219e-07
6.74552e-09
-1.5379e-07
6.29022e-09
-1.55271e-07
5.82596e-09
-1.56633e-07
5.3534e-09
-1.57872e-07
4.87315e-09
-1.58986e-07
4.38586e-09
-1.59975e-07
3.89217e-09
-1.60837e-07
3.39274e-09
-1.61571e-07
2.88821e-09
-1.62174e-07
2.37924e-09
-1.62648e-07
1.8665e-09
-1.6299e-07
1.35066e-09
-1.63199e-07
8.32399e-10
-1.63277e-07
3.1239e-10
-1.63222e-07
-2.08678e-10
-1.63034e-07
-7.30112e-10
-1.62714e-07
-1.25122e-09
-1.62261e-07
-1.77129e-09
-1.61677e-07
-2.28962e-09
-1.60961e-07
-2.8055e-09
-1.60115e-07
-3.3182e-09
-1.59139e-07
-3.82702e-09
-1.58035e-07
-4.33122e-09
-1.56804e-07
-4.83007e-09
-1.55448e-07
-5.32284e-09
-1.53969e-07
-5.80879e-09
-1.52368e-07
-6.28719e-09
-1.50647e-07
-6.75728e-09
-1.4881e-07
-7.21834e-09
-1.46857e-07
-7.66962e-09
-1.44793e-07
-8.11036e-09
-1.42619e-07
-8.53984e-09
-1.4034e-07
-8.9573e-09
-1.37958e-07
-9.36201e-09
-1.35476e-07
-9.75322e-09
-1.32899e-07
-1.01302e-08
-1.3023e-07
-1.04922e-08
-1.27473e-07
-1.08386e-08
-1.24632e-07
-1.11686e-08
-1.21711e-07
-1.14814e-08
-1.18716e-07
-1.17765e-08
-1.15651e-07
-1.20531e-08
-1.1252e-07
-1.23105e-08
-1.09328e-07
-1.2548e-08
-1.06082e-07
-1.27651e-08
-1.02786e-07
-1.29611e-08
-9.9445e-08
-1.31353e-08
-9.60655e-08
-1.32872e-08
-9.26532e-08
-1.34162e-08
-8.92137e-08
-1.35217e-08
-8.57533e-08
-1.36033e-08
-8.2278e-08
-1.36603e-08
-7.8794e-08
-1.36923e-08
-7.53079e-08
-1.36989e-08
-7.18261e-08
-1.36797e-08
-6.8355e-08
-1.36342e-08
-6.49014e-08
-1.35622e-08
-6.14719e-08
-1.34633e-08
-5.80734e-08
-1.33373e-08
-5.47125e-08
-1.31839e-08
-5.13961e-08
-1.30031e-08
-4.81311e-08
-1.27946e-08
-4.49242e-08
-1.25585e-08
-4.17824e-08
-1.22948e-08
-3.87122e-08
-1.20035e-08
-3.57205e-08
-1.16848e-08
-3.28138e-08
-1.13391e-08
-2.99987e-08
-1.09666e-08
-2.72814e-08
-1.05678e-08
-2.46683e-08
-1.01433e-08
-2.21651e-08
-9.69387e-09
-1.97778e-08
-9.22031e-09
-1.75116e-08
-8.7237e-09
-1.53717e-08
-8.2053e-09
-1.33627e-08
-7.6666e-09
-1.1489e-08
-7.10935e-09
-9.75405e-09
-6.53564e-09
-8.16105e-09
-5.94789e-09
-6.71231e-09
-5.34899e-09
-5.40933e-09
-4.74232e-09
-4.2527e-09
-4.13185e-09
-3.24189e-09
-3.52229e-09
-2.37515e-09
-2.91918e-09
-1.64933e-09
-2.32906e-09
-1.05968e-09
-1.75965e-09
-5.99654e-10
-1.22009e-09
-2.60686e-10
-7.21147e-10
-3.19621e-11
-2.75478e-10
9.98535e-11
1.02067e-10
1.5093e-10
3.9416e-10
1.40688e-10
5.80687e-10
9.23779e-11
6.38546e-10
3.39827e-11
5.41324e-10
2.5673e-10
1.72357e-11
-2.66012e-10
3.0596e-11
-5.229e-10
8.29149e-12
-5.5618e-10
-7.60496e-11
-4.05971e-10
-2.4453e-10
-1.0475e-10
-5.15607e-10
3.19397e-10
-9.04589e-10
8.42204e-10
-1.42399e-09
1.44285e-09
-2.08381e-09
2.10353e-09
-2.89185e-09
2.80904e-09
-3.85383e-09
3.54642e-09
-4.97374e-09
4.30469e-09
-6.2539e-09
5.07453e-09
-7.69523e-09
5.84806e-09
-9.29741e-09
6.61863e-09
-1.1059e-08
7.38061e-09
-1.29776e-08
8.12926e-09
-1.50499e-08
8.86058e-09
-1.72721e-08
9.57124e-09
-1.96394e-08
1.02584e-08
-2.21469e-08
1.09198e-08
-2.47889e-08
1.15533e-08
-2.75595e-08
1.21576e-08
-3.04524e-08
1.27311e-08
-3.3461e-08
1.32729e-08
-3.65786e-08
1.37822e-08
-3.97982e-08
1.42583e-08
-4.31127e-08
1.47007e-08
-4.65149e-08
1.5109e-08
-4.99975e-08
1.54832e-08
-5.35533e-08
1.58231e-08
-5.71748e-08
1.61287e-08
-6.08546e-08
1.64001e-08
-6.45855e-08
1.66374e-08
-6.83601e-08
1.68409e-08
-7.21712e-08
1.7011e-08
-7.60114e-08
1.71479e-08
-7.98737e-08
1.7252e-08
-8.37509e-08
1.73237e-08
-8.76361e-08
1.73637e-08
-9.15224e-08
1.73722e-08
-9.5403e-08
1.735e-08
-9.92713e-08
1.72975e-08
-1.03121e-07
1.72153e-08
-1.06945e-07
1.7104e-08
-1.10737e-07
1.69643e-08
-1.14492e-07
1.67968e-08
-1.18202e-07
1.66021e-08
-1.21863e-07
1.63809e-08
-1.25469e-07
1.61339e-08
-1.29014e-07