/*--------------------------------*- C++ -*----------------------------------*\
  =========                 |
  \\      /  F ield         | OpenFOAM: The Open Source CFD Toolbox
   \\    /   O peration     | Website:  https://openfoam.org
    \\  /    A nd           | Version:  7
     \\/     M anipulation  |
\*---------------------------------------------------------------------------*/
FoamFile
{
    version     2.0;
    format      ascii;
    class       volVectorField;
    location    "0.45";
    object      U;
}
// * * * * * * * * * * * * * * * * * * * * * * * * * * * * * * * * * * * * * //

dimensions      [0 1 -1 0 0 0 0];

internalField   nonuniform List<vector> 
25600
(
(1.70347e-07 -2.13796e-07 0)
(2.82483e-06 -1.80006e-06 0)
(9.06804e-06 -2.83625e-06 0)
(1.69238e-05 -3.20805e-06 0)
(2.4888e-05 -3.1242e-06 0)
(3.20093e-05 -2.74706e-06 0)
(3.76331e-05 -2.18262e-06 0)
(4.13114e-05 -1.50197e-06 0)
(4.2746e-05 -7.51664e-07 0)
(4.17445e-05 3.7416e-08 0)
(3.81881e-05 8.44609e-07 0)
(3.20131e-05 1.65619e-06 0)
(2.31985e-05 2.46253e-06 0)
(1.17545e-05 3.25627e-06 0)
(-2.28567e-06 4.03165e-06 0)
(-1.88714e-05 4.78458e-06 0)
(-3.79378e-05 5.51227e-06 0)
(-5.94083e-05 6.21266e-06 0)
(-8.31981e-05 6.88414e-06 0)
(-0.000109216 7.52547e-06 0)
(-0.000137365 8.13571e-06 0)
(-0.000167545 8.71424e-06 0)
(-0.000199653 9.2607e-06 0)
(-0.000233584 9.77492e-06 0)
(-0.00026923 1.02568e-05 0)
(-0.000306485 1.07064e-05 0)
(-0.00034524 1.11239e-05 0)
(-0.000385386 1.15094e-05 0)
(-0.000426816 1.18633e-05 0)
(-0.000469423 1.21859e-05 0)
(-0.000513101 1.24775e-05 0)
(-0.000557742 1.27386e-05 0)
(-0.000603244 1.29696e-05 0)
(-0.000649503 1.3171e-05 0)
(-0.000696416 1.33433e-05 0)
(-0.000743884 1.3487e-05 0)
(-0.000791808 1.36027e-05 0)
(-0.000840091 1.36908e-05 0)
(-0.000888637 1.3752e-05 0)
(-0.000937354 1.37868e-05 0)
(-0.000986149 1.37958e-05 0)
(-0.00103493 1.37795e-05 0)
(-0.00108362 1.37385e-05 0)
(-0.00113212 1.36735e-05 0)
(-0.00118035 1.3585e-05 0)
(-0.00122822 1.34736e-05 0)
(-0.00127567 1.33399e-05 0)
(-0.00132261 1.31846e-05 0)
(-0.00136897 1.30081e-05 0)
(-0.00141466 1.28111e-05 0)
(-0.00145963 1.25943e-05 0)
(-0.00150379 1.23581e-05 0)
(-0.00154709 1.21032e-05 0)
(-0.00158946 1.18301e-05 0)
(-0.00163083 1.15396e-05 0)
(-0.00167114 1.12321e-05 0)
(-0.00171034 1.09084e-05 0)
(-0.00174836 1.05689e-05 0)
(-0.00178515 1.02142e-05 0)
(-0.00182066 9.84506e-06 0)
(-0.00185484 9.46196e-06 0)
(-0.00188764 9.06553e-06 0)
(-0.00191901 8.65638e-06 0)
(-0.00194892 8.23509e-06 0)
(-0.0019773 7.80228e-06 0)
(-0.00200414 7.35855e-06 0)
(-0.00202938 6.90453e-06 0)
(-0.002053 6.44081e-06 0)
(-0.00207496 5.96803e-06 0)
(-0.00209522 5.4868e-06 0)
(-0.00211377 4.99774e-06 0)
(-0.00213057 4.5015e-06 0)
(-0.0021456 3.99869e-06 0)
(-0.00215883 3.48996e-06 0)
(-0.00217026 2.97594e-06 0)
(-0.00217985 2.4573e-06 0)
(-0.0021876 1.93469e-06 0)
(-0.00219349 1.40878e-06 0)
(-0.00219751 8.80224e-07 0)
(-0.00219965 3.49713e-07 0)
(-0.00219992 -1.82075e-07 0)
(-0.00219829 -7.14451e-07 0)
(-0.00219479 -1.24672e-06 0)
(-0.00218939 -1.77818e-06 0)
(-0.00218212 -2.30812e-06 0)
(-0.00217298 -2.83583e-06 0)
(-0.00216197 -3.36059e-06 0)
(-0.00214912 -3.88166e-06 0)
(-0.00213442 -4.39831e-06 0)
(-0.00211791 -4.9098e-06 0)
(-0.0020996 -5.41537e-06 0)
(-0.00207951 -5.91429e-06 0)
(-0.00205768 -6.40578e-06 0)
(-0.00203412 -6.88908e-06 0)
(-0.00200886 -7.36342e-06 0)
(-0.00198195 -7.82804e-06 0)
(-0.00195342 -8.28215e-06 0)
(-0.0019233 -8.725e-06 0)
(-0.00189164 -9.15579e-06 0)
(-0.00185848 -9.57376e-06 0)
(-0.00182387 -9.97813e-06 0)
(-0.00178786 -1.03681e-05 0)
(-0.0017505 -1.07429e-05 0)
(-0.00171185 -1.11018e-05 0)
(-0.00167197 -1.1444e-05 0)
(-0.00163091 -1.17687e-05 0)
(-0.00158873 -1.20752e-05 0)
(-0.00154552 -1.23627e-05 0)
(-0.00150132 -1.26305e-05 0)
(-0.00145622 -1.28778e-05 0)
(-0.00141029 -1.31039e-05 0)
(-0.0013636 -1.33081e-05 0)
(-0.00131623 -1.34897e-05 0)
(-0.00126827 -1.3648e-05 0)
(-0.0012198 -1.37823e-05 0)
(-0.00117089 -1.3892e-05 0)
(-0.00112165 -1.39764e-05 0)
(-0.00107216 -1.4035e-05 0)
(-0.0010225 -1.4067e-05 0)
(-0.000972787 -1.40719e-05 0)
(-0.000923103 -1.40492e-05 0)
(-0.000873547 -1.39984e-05 0)
(-0.00082422 -1.39189e-05 0)
(-0.000775221 -1.38103e-05 0)
(-0.000726654 -1.36721e-05 0)
(-0.000678622 -1.35039e-05 0)
(-0.00063123 -1.33053e-05 0)
(-0.000584583 -1.3076e-05 0)
(-0.000538787 -1.28158e-05 0)
(-0.000493951 -1.25242e-05 0)
(-0.000450182 -1.22012e-05 0)
(-0.000407589 -1.18466e-05 0)
(-0.000366279 -1.14602e-05 0)
(-0.00032636 -1.1042e-05 0)
(-0.00028794 -1.05921e-05 0)
(-0.000251126 -1.01106e-05 0)
(-0.000216024 -9.59773e-06 0)
(-0.000182736 -9.05375e-06 0)
(-0.000151366 -8.47912e-06 0)
(-0.000122012 -7.87442e-06 0)
(-9.477e-05 -7.24042e-06 0)
(-6.97321e-05 -6.57811e-06 0)
(-4.69846e-05 -5.88879e-06 0)
(-2.66075e-05 -5.17411e-06 0)
(-8.67318e-06 -4.43614e-06 0)
(6.75608e-06 -3.6775e-06 0)
(1.963e-05 -2.90155e-06 0)
(2.99139e-05 -2.11268e-06 0)
(3.75924e-05 -1.31669e-06 0)
(4.26749e-05 -5.21292e-07 0)
(4.52026e-05 2.63015e-07 0)
(4.52585e-05 1.02161e-06 0)
(4.29816e-05 1.73364e-06 0)
(3.85861e-05 2.36846e-06 0)
(3.23922e-05 2.87974e-06 0)
(2.48681e-05 3.19721e-06 0)
(1.66799e-05 3.21621e-06 0)
(8.77964e-06 2.78052e-06 0)
(2.64297e-06 1.69742e-06 0)
(1.21874e-07 1.22269e-07 0)
(1.77157e-06 -2.88901e-06 0)
(9.37219e-06 -9.42478e-06 0)
(2.31322e-05 -1.34275e-05 0)
(3.93772e-05 -1.47351e-05 0)
(5.52658e-05 -1.3969e-05 0)
(6.88039e-05 -1.17023e-05 0)
(7.84505e-05 -8.37299e-06 0)
(8.30483e-05 -4.30931e-06 0)
(8.17657e-05 2.48613e-07 0)
(7.40251e-05 5.12491e-06 0)
(5.9443e-05 1.019e-05 0)
(3.77863e-05 1.53483e-05 0)
(8.93915e-06 2.05283e-05 0)
(-2.71226e-05 2.5675e-05 0)
(-7.03508e-05 3.07451e-05 0)
(-0.00012064 3.57055e-05 0)
(-0.000177841 4.05305e-05 0)
(-0.000241767 4.52002e-05 0)
(-0.000312205 4.96991e-05 0)
(-0.000388917 5.40149e-05 0)
(-0.000471648 5.81382e-05 0)
(-0.00056013 6.20616e-05 0)
(-0.000654083 6.57799e-05 0)
(-0.000753218 6.92894e-05 0)
(-0.000857242 7.25874e-05 0)
(-0.000965855 7.56723e-05 0)
(-0.00107876 7.85436e-05 0)
(-0.00119564 8.12011e-05 0)
(-0.00131621 8.36456e-05 0)
(-0.00144015 8.58781e-05 0)
(-0.00156717 8.79004e-05 0)
(-0.00169696 8.97142e-05 0)
(-0.00182924 9.13219e-05 0)
(-0.00196369 9.27262e-05 0)
(-0.00210003 9.39297e-05 0)
(-0.00223798 9.49356e-05 0)
(-0.00237725 9.57469e-05 0)
(-0.00251756 9.6367e-05 0)
(-0.00265863 9.67994e-05 0)
(-0.0028002 9.70476e-05 0)
(-0.00294199 9.71153e-05 0)
(-0.00308376 9.70063e-05 0)
(-0.00322524 9.67244e-05 0)
(-0.0033662 9.62734e-05 0)
(-0.00350637 9.56573e-05 0)
(-0.00364553 9.48801e-05 0)
(-0.00378344 9.39458e-05 0)
(-0.00391988 9.28585e-05 0)
(-0.00405463 9.16222e-05 0)
(-0.00418746 9.0241e-05 0)
(-0.00431818 8.8719e-05 0)
(-0.00444658 8.70603e-05 0)
(-0.00457246 8.52692e-05 0)
(-0.00469564 8.33497e-05 0)
(-0.00481592 8.13061e-05 0)
(-0.00493312 7.91425e-05 0)
(-0.00504709 7.68632e-05 0)
(-0.00515764 7.44723e-05 0)
(-0.00526462 7.19741e-05 0)
(-0.00536788 6.93727e-05 0)
(-0.00546726 6.66725e-05 0)
(-0.00556262 6.38777e-05 0)
(-0.00565384 6.09926e-05 0)
(-0.00574077 5.80214e-05 0)
(-0.00582331 5.49686e-05 0)
(-0.00590132 5.18383e-05 0)
(-0.0059747 4.86351e-05 0)
(-0.00604335 4.53633e-05 0)
(-0.00610717 4.20272e-05 0)
(-0.00616607 3.86314e-05 0)
(-0.00621997 3.51803e-05 0)
(-0.00626878 3.16784e-05 0)
(-0.00631244 2.81303e-05 0)
(-0.00635088 2.45405e-05 0)
(-0.00638404 2.09136e-05 0)
(-0.00641188 1.72543e-05 0)
(-0.00643435 1.35673e-05 0)
(-0.00645141 9.85732e-06 0)
(-0.00646304 6.12912e-06 0)
(-0.0064692 2.38755e-06 0)
(-0.0064699 -1.36255e-06 0)
(-0.0064651 -5.11625e-06 0)
(-0.00645483 -8.8686e-06 0)
(-0.00643908 -1.26146e-05 0)
(-0.00641786 -1.63493e-05 0)
(-0.00639119 -2.00674e-05 0)
(-0.00635911 -2.3764e-05 0)
(-0.00632166 -2.74338e-05 0)
(-0.00627886 -3.10717e-05 0)
(-0.00623078 -3.46723e-05 0)
(-0.00617747 -3.82304e-05 0)
(-0.006119 -4.17407e-05 0)
(-0.00605545 -4.51978e-05 0)
(-0.00598689 -4.85964e-05 0)
(-0.00591342 -5.1931e-05 0)
(-0.00583514 -5.51963e-05 0)
(-0.00575214 -5.83868e-05 0)
(-0.00566455 -6.14971e-05 0)
(-0.00557249 -6.45217e-05 0)
(-0.00547608 -6.74552e-05 0)
(-0.00537546 -7.02922e-05 0)
(-0.00527078 -7.30272e-05 0)
(-0.00516219 -7.56548e-05 0)
(-0.00504986 -7.81698e-05 0)
(-0.00493395 -8.05666e-05 0)
(-0.00481463 -8.28401e-05 0)
(-0.0046921 -8.49849e-05 0)
(-0.00456654 -8.69959e-05 0)
(-0.00443815 -8.88679e-05 0)
(-0.00430714 -9.05958e-05 0)
(-0.00417373 -9.21748e-05 0)
(-0.00403813 -9.35998e-05 0)
(-0.00390057 -9.48661e-05 0)
(-0.00376129 -9.59691e-05 0)
(-0.00362053 -9.69041e-05 0)
(-0.00347853 -9.76667e-05 0)
(-0.00333555 -9.82527e-05 0)
(-0.00319185 -9.86578e-05 0)
(-0.0030477 -9.88782e-05 0)
(-0.00290336 -9.891e-05 0)
(-0.00275911 -9.87497e-05 0)
(-0.00261524 -9.83938e-05 0)
(-0.00247203 -9.78392e-05 0)
(-0.00232976 -9.70829e-05 0)
(-0.00218874 -9.61222e-05 0)
(-0.00204925 -9.49546e-05 0)
(-0.00191161 -9.35782e-05 0)
(-0.0017761 -9.19909e-05 0)
(-0.00164305 -9.01914e-05 0)
(-0.00151274 -8.81785e-05 0)
(-0.0013855 -8.59514e-05 0)
(-0.00126161 -8.35101e-05 0)
(-0.00114141 -8.08546e-05 0)
(-0.00102517 -7.79858e-05 0)
(-0.00091322 -7.49051e-05 0)
(-0.000805844 -7.16147e-05 0)
(-0.00070334 -6.81175e-05 0)
(-0.000605996 -6.44173e-05 0)
(-0.000514092 -6.05191e-05 0)
(-0.000427899 -5.64292e-05 0)
(-0.000347677 -5.21555e-05 0)
(-0.00027367 -4.77075e-05 0)
(-0.000206106 -4.30973e-05 0)
(-0.00014519 -3.83396e-05 0)
(-9.1102e-05 -3.34526e-05 0)
(-4.39905e-05 -2.84589e-05 0)
(-3.96434e-06 -2.33867e-05 0)
(2.89155e-05 -1.82714e-05 0)
(5.4648e-05 -1.31576e-05 0)
(7.33061e-05 -8.10262e-06 0)
(8.50563e-05 -3.18049e-06 0)
(9.01835e-05 1.51176e-06 0)
(8.91227e-05 5.84506e-06 0)
(8.25024e-05 9.64559e-06 0)
(7.12e-05 1.26767e-05 0)
(5.64087e-05 1.46176e-05 0)
(3.96874e-05 1.50446e-05 0)
(2.30201e-05 1.34196e-05 0)
(9.18272e-06 9.18661e-06 0)
(1.6943e-06 2.64205e-06 0)
(2.82184e-06 -9.09939e-06 0)
(1.34018e-05 -2.31755e-05 0)
(3.10704e-05 -3.10842e-05 0)
(5.08484e-05 -3.31495e-05 0)
(6.91343e-05 -3.04708e-05 0)
(8.33674e-05 -2.41434e-05 0)
(9.14651e-05 -1.50943e-05 0)
(9.1786e-05 -4.06791e-06 0)
(8.30964e-05 8.35604e-06 0)
(6.45011e-05 2.17296e-05 0)
(3.53777e-05 3.57074e-05 0)
(-4.67466e-06 5.00227e-05 0)
(-5.58796e-05 6.44683e-05 0)
(-0.000118318 7.88824e-05 0)
(-0.000191956 9.31373e-05 0)
(-0.000276666 0.000107132 0)
(-0.000372244 0.000120786 0)
(-0.000478427 0.000134036 0)
(-0.000594902 0.000146831 0)
(-0.000721317 0.000159132 0)
(-0.000857287 0.000170907 0)
(-0.0010024 0.00018213 0)
(-0.00115623 0.000192784 0)
(-0.00131833 0.000202855 0)
(-0.00148824 0.000212331 0)
(-0.00166548 0.000221205 0)
(-0.0018496 0.000229475 0)
(-0.0020401 0.000237136 0)
(-0.00223651 0.000244191 0)
(-0.00243834 0.000250639 0)
(-0.00264512 0.000256486 0)
(-0.00285636 0.000261734 0)
(-0.00307159 0.000266389 0)
(-0.00329033 0.000270458 0)
(-0.00351212 0.000273948 0)
(-0.0037365 0.000276867 0)
(-0.00396301 0.000279223 0)
(-0.00419119 0.000281026 0)
(-0.00442061 0.000282284 0)
(-0.00465082 0.000283008 0)
(-0.00488141 0.000283207 0)
(-0.00511194 0.000282893 0)
(-0.00534202 0.000282076 0)
(-0.00557123 0.000280767 0)
(-0.00579917 0.000278977 0)
(-0.00602547 0.000276718 0)
(-0.00624974 0.000274 0)
(-0.00647162 0.000270836 0)
(-0.00669075 0.000267237 0)
(-0.00690678 0.000263215 0)
(-0.00711937 0.000258782 0)
(-0.00732819 0.00025395 0)
(-0.00753291 0.00024873 0)
(-0.00773323 0.000243135 0)
(-0.00792885 0.000237178 0)
(-0.00811948 0.000230869 0)
(-0.00830483 0.000224222 0)
(-0.00848463 0.000217248 0)
(-0.00865862 0.000209961 0)
(-0.00882655 0.000202371 0)
(-0.00898818 0.000194493 0)
(-0.00914328 0.000186337 0)
(-0.00929162 0.000177918 0)
(-0.009433 0.000169247 0)
(-0.00956722 0.000160337 0)
(-0.00969408 0.0001512 0)
(-0.00981341 0.00014185 0)
(-0.00992503 0.0001323 0)
(-0.0100288 0.000122562 0)
(-0.0101246 0.000112649 0)
(-0.0102122 0.000102575 0)
(-0.0102915 9.23526e-05 0)
(-0.0103624 8.19953e-05 0)
(-0.0104249 7.15166e-05 0)
(-0.0104788 6.09299e-05 0)
(-0.010524 5.02489e-05 0)
(-0.0105605 3.94875e-05 0)
(-0.0105881 2.86594e-05 0)
(-0.010607 1.77788e-05 0)
(-0.0106169 6.85967e-06 0)
(-0.0106179 -4.0836e-06 0)
(-0.0106101 -1.50366e-05 0)
(-0.0105933 -2.5985e-05 0)
(-0.0105675 -3.69139e-05 0)
(-0.0105329 -4.78088e-05 0)
(-0.0104895 -5.86546e-05 0)
(-0.0104372 -6.94364e-05 0)
(-0.0103762 -8.0139e-05 0)
(-0.0103065 -9.07473e-05 0)
(-0.0102282 -0.000101246 0)
(-0.0101415 -0.000111619 0)
(-0.0100463 -0.000121852 0)
(-0.00994288 -0.000131929 0)
(-0.00983132 -0.000141834 0)
(-0.00971178 -0.000151551 0)
(-0.00958442 -0.000161064 0)
(-0.0094494 -0.000170359 0)
(-0.00930693 -0.000179418 0)
(-0.00915719 -0.000188227 0)
(-0.00900039 -0.000196769 0)
(-0.00883676 -0.000205029 0)
(-0.00866655 -0.00021299 0)
(-0.00848998 -0.000220638 0)
(-0.00830734 -0.000227956 0)
(-0.00811889 -0.000234929 0)
(-0.00792492 -0.000241543 0)
(-0.00772573 -0.00024778 0)
(-0.00752164 -0.000253628 0)
(-0.00731295 -0.00025907 0)
(-0.00710003 -0.000264092 0)
(-0.00688319 -0.000268681 0)
(-0.00666282 -0.000272821 0)
(-0.00643927 -0.000276499 0)
(-0.00621293 -0.000279702 0)
(-0.00598419 -0.000282416 0)
(-0.00575344 -0.00028463 0)
(-0.00552111 -0.00028633 0)
(-0.0052876 -0.000287506 0)
(-0.00505336 -0.000288145 0)
(-0.00481881 -0.000288238 0)
(-0.0045844 -0.000287774 0)
(-0.00435059 -0.000286743 0)
(-0.00411784 -0.000285138 0)
(-0.00388662 -0.000282949 0)
(-0.00365739 -0.00028017 0)
(-0.00343063 -0.000276794 0)
(-0.00320683 -0.000272816 0)
(-0.00298648 -0.000268231 0)
(-0.00277005 -0.000263036 0)
(-0.00255804 -0.000257229 0)
(-0.00235094 -0.000250807 0)
(-0.00214923 -0.000243773 0)
(-0.00195341 -0.000236127 0)
(-0.00176396 -0.000227874 0)
(-0.00158135 -0.000219019 0)
(-0.00140607 -0.000209571 0)
(-0.00123856 -0.000199539 0)
(-0.00107928 -0.000188938 0)
(-0.000928672 -0.000177784 0)
(-0.00078715 -0.000166098 0)
(-0.000655112 -0.000153906 0)
(-0.000532932 -0.00014124 0)
(-0.000420951 -0.000128138 0)
(-0.000319473 -0.000114647 0)
(-0.000228758 -0.000100824 0)
(-0.000149012 -8.67398e-05 0)
(-8.03744e-05 -7.24805e-05 0)
(-2.29063e-05 -5.81528e-05 0)
(2.34286e-05 -4.38898e-05 0)
(5.87845e-05 -2.98579e-05 0)
(8.34604e-05 -1.62675e-05 0)
(9.79334e-05 -3.38642e-06 0)
(0.0001029 8.44244e-06 0)
(9.93241e-05 1.87778e-05 0)
(8.85007e-05 2.70522e-05 0)
(7.21172e-05 3.25459e-05 0)
(5.22796e-05 3.43756e-05 0)
(3.15354e-05 3.1524e-05 0)
(1.34189e-05 2.30208e-05 0)
(2.77662e-06 8.77415e-06 0)
(3.20578e-06 -1.69454e-05 0)
(1.4752e-05 -3.94315e-05 0)
(3.32182e-05 -5.0871e-05 0)
(5.27387e-05 -5.2633e-05 0)
(6.92056e-05 -4.64537e-05 0)
(7.9707e-05 -3.40062e-05 0)
(8.18308e-05 -1.67496e-05 0)
(7.36267e-05 4.10342e-06 0)
(5.35862e-05 2.75722e-05 0)
(2.05805e-05 5.2874e-05 0)
(-2.62005e-05 7.93871e-05 0)
(-8.73007e-05 0.000106618 0)
(-0.000163043 0.000134174 0)
(-0.00025357 0.000161742 0)
(-0.000358872 0.000189072 0)
(-0.000478816 0.000215962 0)
(-0.000613167 0.00024225 0)
(-0.000761605 0.000267808 0)
(-0.000923741 0.000292529 0)
(-0.00109913 0.000316331 0)
(-0.00128729 0.000339146 0)
(-0.00148767 0.000360921 0)
(-0.00169973 0.000381614 0)
(-0.00192289 0.000401193 0)
(-0.00215653 0.000419635 0)
(-0.00240004 0.000436922 0)
(-0.0026528 0.000453042 0)
(-0.00291415 0.00046799 0)
(-0.00318348 0.000481761 0)
(-0.00346012 0.000494358 0)
(-0.00374344 0.000505785 0)
(-0.00403279 0.000516048 0)
(-0.00432753 0.000525156 0)
(-0.00462702 0.000533121 0)
(-0.00493064 0.000539954 0)
(-0.00523775 0.000545671 0)
(-0.00554774 0.000550287 0)
(-0.00586 0.000553818 0)
(-0.00617392 0.000556283 0)
(-0.00648892 0.000557699 0)
(-0.00680441 0.000558086 0)
(-0.00711982 0.000557464 0)
(-0.00743459 0.000555854 0)
(-0.00774817 0.000553276 0)
(-0.00806002 0.000549752 0)
(-0.00836961 0.000545304 0)
(-0.00867643 0.000539954 0)
(-0.00897998 0.000533724 0)
(-0.00927976 0.000526637 0)
(-0.0095753 0.000518717 0)
(-0.00986614 0.000509986 0)
(-0.0101518 0.000500467 0)
(-0.0104319 0.000490185 0)
(-0.0107059 0.000479162 0)
(-0.0109736 0.000467424 0)
(-0.0112344 0.000454993 0)
(-0.0114879 0.000441893 0)
(-0.0117339 0.000428149 0)
(-0.0119719 0.000413786 0)
(-0.0122017 0.000398826 0)
(-0.0124228 0.000383296 0)
(-0.0126349 0.00036722 0)
(-0.0128379 0.000350621 0)
(-0.0130313 0.000333526 0)
(-0.0132149 0.000315959 0)
(-0.0133884 0.000297946 0)
(-0.0135516 0.000279511 0)
(-0.0137042 0.000260681 0)
(-0.0138462 0.00024148 0)
(-0.0139771 0.000221935 0)
(-0.0140969 0.000202072 0)
(-0.0142054 0.000181916 0)
(-0.0143024 0.000161495 0)
(-0.0143877 0.000140835 0)
(-0.0144613 0.000119962 0)
(-0.0145231 9.89038e-05 0)
(-0.0145729 7.76876e-05 0)
(-0.0146107 5.63408e-05 0)
(-0.0146363 3.48912e-05 0)
(-0.0146498 1.33667e-05 0)
(-0.0146511 -8.20453e-06 0)
(-0.0146402 -2.97939e-05 0)
(-0.0146171 -5.13729e-05 0)
(-0.0145818 -7.29124e-05 0)
(-0.0145344 -9.43833e-05 0)
(-0.0144748 -0.000115756 0)
(-0.0144032 -0.000137002 0)
(-0.0143197 -0.00015809 0)
(-0.0142242 -0.00017899 0)
(-0.014117 -0.000199673 0)
(-0.0139982 -0.000220108 0)
(-0.013868 -0.000240263 0)
(-0.0137264 -0.00026011 0)
(-0.0135737 -0.000279616 0)
(-0.0134101 -0.000298751 0)
(-0.0132359 -0.000317484 0)
(-0.0130511 -0.000335784 0)
(-0.0128562 -0.000353619 0)
(-0.0126513 -0.000370958 0)
(-0.0124368 -0.000387772 0)
(-0.012213 -0.000404027 0)
(-0.0119802 -0.000419694 0)
(-0.0117387 -0.000434742 0)
(-0.0114889 -0.000449141 0)
(-0.0112312 -0.000462859 0)
(-0.0109659 -0.000475868 0)
(-0.0106935 -0.000488137 0)
(-0.0104145 -0.000499637 0)
(-0.0101291 -0.000510339 0)
(-0.00983797 -0.000520214 0)
(-0.0095415 -0.000529236 0)
(-0.0092402 -0.000537375 0)
(-0.00893456 -0.000544606 0)
(-0.00862511 -0.000550903 0)
(-0.00831238 -0.00055624 0)
(-0.00799691 -0.000560593 0)
(-0.00767926 -0.000563938 0)
(-0.00736001 -0.000566254 0)
(-0.00703974 -0.000567517 0)
(-0.00671904 -0.000567708 0)
(-0.00639852 -0.000566808 0)
(-0.0060788 -0.000564799 0)
(-0.0057605 -0.000561664 0)
(-0.00544425 -0.000557388 0)
(-0.00513069 -0.000551958 0)
(-0.00482047 -0.000545362 0)
(-0.00451424 -0.00053759 0)
(-0.00421265 -0.000528635 0)
(-0.00391636 -0.000518491 0)
(-0.00362603 -0.000507155 0)
(-0.00334232 -0.000494627 0)
(-0.00306589 -0.000480908 0)
(-0.00279737 -0.000466006 0)
(-0.00253743 -0.000449928 0)
(-0.0022867 -0.000432689 0)
(-0.0020458 -0.000414308 0)
(-0.00181535 -0.000394806 0)
(-0.00159595 -0.000374214 0)
(-0.00138815 -0.000352569 0)
(-0.00119252 -0.000329916 0)
(-0.00100958 -0.000306308 0)
(-0.000839785 -0.000281813 0)
(-0.000683589 -0.000256509 0)
(-0.000541368 -0.000230495 0)
(-0.000413443 -0.000203887 0)
(-0.000300056 -0.000176826 0)
(-0.000201363 -0.000149487 0)
(-0.000117411 -0.00012208 0)
(-4.81196e-05 -9.48637e-05 0)
(6.74604e-06 -6.8159e-05 0)
(4.76038e-05 -4.23622e-05 0)
(7.50918e-05 -1.79667e-05 0)
(9.01112e-05 4.4116e-06 0)
(9.38746e-05 2.40042e-05 0)
(8.79631e-05 3.98574e-05 0)
(7.43831e-05 5.0805e-05 0)
(5.55774e-05 5.54638e-05 0)
(3.44508e-05 5.22807e-05 0)
(1.50661e-05 3.9704e-05 0)
(3.21523e-06 1.66733e-05 0)
(3.13539e-06 -2.49261e-05 0)
(1.40495e-05 -5.53857e-05 0)
(3.06838e-05 -6.92358e-05 0)
(4.67988e-05 -6.91365e-05 0)
(5.80081e-05 -5.75997e-05 0)
(6.11786e-05 -3.69255e-05 0)
(5.3701e-05 -9.12103e-06 0)
(3.34393e-05 2.41199e-05 0)
(-1.28883e-06 6.13961e-05 0)
(-5.17693e-05 0.000101563 0)
(-0.000118947 0.000143691 0)
(-0.000203474 0.000187025 0)
(-0.000305755 0.000230954 0)
(-0.000425984 0.000274982 0)
(-0.000564178 0.000318707 0)
(-0.000720205 0.000361803 0)
(-0.000893809 0.000404001 0)
(-0.00108463 0.000445087 0)
(-0.00129222 0.000484882 0)
(-0.00151605 0.000523245 0)
(-0.00175556 0.00056006 0)
(-0.0020101 0.000595233 0)
(-0.00227902 0.000628692 0)
(-0.0025616 0.000660378 0)
(-0.00285712 0.000690247 0)
(-0.00316482 0.000718267 0)
(-0.00348395 0.000744414 0)
(-0.00381373 0.000768673 0)
(-0.00415335 0.000791037 0)
(-0.00450205 0.000811503 0)
(-0.00485902 0.000830077 0)
(-0.00522346 0.000846766 0)
(-0.00559458 0.000861582 0)
(-0.00597161 0.000874541 0)
(-0.00635374 0.000885661 0)
(-0.00674021 0.000894965 0)
(-0.00713025 0.000902476 0)
(-0.00752309 0.000908219 0)
(-0.00791799 0.000912223 0)
(-0.00831421 0.000914516 0)
(-0.00871102 0.000915128 0)
(-0.00910771 0.000914092 0)
(-0.00950357 0.000911439 0)
(-0.00989792 0.000907204 0)
(-0.0102901 0.000901421 0)
(-0.0106794 0.000894125 0)
(-0.0110652 0.000885352 0)
(-0.0114469 0.000875138 0)
(-0.0118239 0.00086352 0)
(-0.0121955 0.000850535 0)
(-0.0125612 0.000836221 0)
(-0.0129204 0.000820616 0)
(-0.0132726 0.000803758 0)
(-0.0136172 0.000785685 0)
(-0.0139536 0.000766437 0)
(-0.0142816 0.000746053 0)
(-0.0146004 0.000724572 0)
(-0.0149096 0.000702033 0)
(-0.0152089 0.000678477 0)
(-0.0154978 0.000653943 0)
(-0.0157758 0.000628472 0)
(-0.0160425 0.000602103 0)
(-0.0162976 0.000574878 0)
(-0.0165407 0.000546838 0)
(-0.0167715 0.000518023 0)
(-0.0169897 0.000488476 0)
(-0.0171948 0.000458237 0)
(-0.0173867 0.000427348 0)
(-0.0175651 0.000395852 0)
(-0.0177296 0.000363792 0)
(-0.0178802 0.000331209 0)
(-0.0180165 0.000298147 0)
(-0.0181383 0.00026465 0)
(-0.0182456 0.000230761 0)
(-0.018338 0.000196525 0)
(-0.0184156 0.000161985 0)
(-0.0184781 0.000127187 0)
(-0.0185254 9.21756e-05 0)
(-0.0185576 5.6997e-05 0)
(-0.0185744 2.16969e-05 0)
(-0.0185759 -1.36782e-05 0)
(-0.0185621 -4.90817e-05 0)
(-0.018533 -8.44664e-05 0)
(-0.0184885 -0.000119785 0)
(-0.0184287 -0.000154989 0)
(-0.0183537 -0.00019003 0)
(-0.0182635 -0.00022486 0)
(-0.0181583 -0.00025943 0)
(-0.0180382 -0.000293691 0)
(-0.0179034 -0.000327593 0)
(-0.0177539 -0.000361085 0)
(-0.01759 -0.000394119 0)
(-0.017412 -0.000426643 0)
(-0.01722 -0.000458607 0)
(-0.0170142 -0.000489961 0)
(-0.0167951 -0.000520654 0)
(-0.0165628 -0.000550634 0)
(-0.0163177 -0.000579851 0)
(-0.0160601 -0.000608255 0)
(-0.0157904 -0.000635793 0)
(-0.015509 -0.000662417 0)
(-0.0152164 -0.000688075 0)
(-0.0149128 -0.000712717 0)
(-0.0145988 -0.000736294 0)
(-0.0142749 -0.000758756 0)
(-0.0139415 -0.000780055 0)
(-0.0135991 -0.000800141 0)
(-0.0132483 -0.000818967 0)
(-0.0128897 -0.000836486 0)
(-0.0125238 -0.000852652 0)
(-0.0121513 -0.00086742 0)
(-0.0117726 -0.000880745 0)
(-0.0113885 -0.000892583 0)
(-0.0109996 -0.000902894 0)
(-0.0106066 -0.000911636 0)
(-0.0102101 -0.000918769 0)
(-0.0098109 -0.000924257 0)
(-0.00940965 -0.000928062 0)
(-0.00900711 -0.00093015 0)
(-0.00860401 -0.000930489 0)
(-0.0082011 -0.000929049 0)
(-0.00779916 -0.0009258 0)
(-0.00739896 -0.000920717 0)
(-0.0070013 -0.000913776 0)
(-0.00660695 -0.000904958 0)
(-0.00621674 -0.000894244 0)
(-0.00583146 -0.000881619 0)
(-0.00545192 -0.000867074 0)
(-0.00507895 -0.0008506 0)
(-0.00471336 -0.000832194 0)
(-0.00435595 -0.000811859 0)
(-0.00400755 -0.0007896 0)
(-0.00366894 -0.00076543 0)
(-0.00334093 -0.000739367 0)
(-0.00302429 -0.000711437 0)
(-0.00271979 -0.000681671 0)
(-0.00242818 -0.000650113 0)
(-0.00215018 -0.000616816 0)
(-0.00188648 -0.000581842 0)
(-0.00163775 -0.00054527 0)
(-0.00140459 -0.000507195 0)
(-0.00118758 -0.000467729 0)
(-0.000987229 -0.000427009 0)
(-0.000803986 -0.000385196 0)
(-0.000638213 -0.000342488 0)
(-0.000490182 -0.000299118 0)
(-0.000360052 -0.00025537 0)
(-0.000247855 -0.000211587 0)
(-0.000153468 -0.000168182 0)
(-7.65887e-05 -0.000125661 0)
(-1.67026e-05 -8.46379e-05 0)
(2.69515e-05 -4.58661e-05 0)
(5.54229e-05 -1.0264e-05 0)
(7.00942e-05 2.10473e-05 0)
(7.27319e-05 4.67095e-05 0)
(6.55397e-05 6.50975e-05 0)
(5.11687e-05 7.43095e-05 0)
(3.2759e-05 7.22017e-05 0)
(1.46899e-05 5.64913e-05 0)
(3.20429e-06 2.48775e-05 0)
(2.77409e-06 -3.21014e-05 0)
(1.18663e-05 -6.9074e-05 0)
(2.456e-05 -8.3661e-05 0)
(3.46976e-05 -7.98007e-05 0)
(3.78313e-05 -6.08351e-05 0)
(3.07142e-05 -2.97205e-05 0)
(1.06382e-05 1.09794e-05 0)
(-2.46281e-05 5.90872e-05 0)
(-7.68632e-05 0.000112777 0)
(-0.000147446 0.00017053 0)
(-0.000237405 0.000231093 0)
(-0.000347467 0.00029343 0)
(-0.000478092 0.000356689 0)
(-0.000629513 0.000420172 0)
(-0.000801765 0.0004833 0)
(-0.000994718 0.0005456 0)
(-0.0012081 0.000606682 0)
(-0.00144151 0.000666225 0)
(-0.00169446 0.000723964 0)
(-0.00196637 0.000779684 0)
(-0.00225657 0.000833207 0)
(-0.00256436 0.000884392 0)
(-0.00288897 0.000933122 0)
(-0.0032296 0.000979307 0)
(-0.00358539 0.00102287 0)
(-0.00395549 0.00106377 0)
(-0.004339 0.00110196 0)
(-0.00473502 0.00113741 0)
(-0.00514264 0.0011701 0)
(-0.00556092 0.00120003 0)
(-0.00598893 0.00122721 0)
(-0.00642575 0.00125163 0)
(-0.00687044 0.00127332 0)
(-0.00732207 0.00129229 0)
(-0.00777971 0.00130857 0)
(-0.00824246 0.00132219 0)
(-0.0087094 0.00133318 0)
(-0.00917963 0.00134158 0)
(-0.00965226 0.00134742 0)
(-0.0101264 0.00135074 0)
(-0.0106013 0.0013516 0)
(-0.0110759 0.00135003 0)
(-0.0115495 0.00134608 0)
(-0.0120213 0.0013398 0)
(-0.0124905 0.00133124 0)
(-0.0129562 0.00132045 0)
(-0.0134177 0.00130748 0)
(-0.0138743 0.00129239 0)
(-0.0143252 0.00127523 0)
(-0.0147697 0.00125605 0)
(-0.0152071 0.0012349 0)
(-0.0156367 0.00121185 0)
(-0.0160579 0.00118695 0)
(-0.0164701 0.00116026 0)
(-0.0168725 0.00113183 0)
(-0.0172647 0.00110172 0)
(-0.017646 0.00107 0)
(-0.0180159 0.0010367 0)
(-0.0183738 0.00100191 0)
(-0.0187192 0.00096567 0)
(-0.0190516 0.000928045 0)
(-0.0193706 0.000889094 0)
(-0.0196757 0.000848877 0)
(-0.0199664 0.000807455 0)
(-0.0202424 0.000764889 0)
(-0.0205032 0.00072124 0)
(-0.0207485 0.000676569 0)
(-0.0209779 0.000630938 0)
(-0.0211911 0.000584411 0)
(-0.0213879 0.00053705 0)
(-0.0215678 0.000488918 0)
(-0.0217307 0.000440078 0)
(-0.0218763 0.000390597 0)
(-0.0220045 0.000340537 0)
(-0.0221149 0.000289965 0)
(-0.0222075 0.000238946 0)
(-0.0222822 0.000187548 0)
(-0.0223387 0.000135836 0)
(-0.022377 8.38781e-05 0)
(-0.022397 3.17429e-05 0)
(-0.0223987 -2.05012e-05 0)
(-0.022382 -7.2785e-05 0)
(-0.022347 -0.000125039 0)
(-0.0222936 -0.000177192 0)
(-0.022222 -0.000229175 0)
(-0.0221322 -0.000280914 0)
(-0.0220242 -0.000332339 0)
(-0.0218983 -0.000383378 0)
(-0.0217546 -0.000433957 0)
(-0.0215932 -0.000484003 0)
(-0.0214144 -0.000533442 0)
(-0.0212183 -0.000582201 0)
(-0.0210053 -0.000630206 0)
(-0.0207756 -0.000677381 0)
(-0.0205295 -0.000723653 0)
(-0.0202674 -0.000768945 0)
(-0.0199895 -0.000813184 0)
(-0.0196964 -0.000856295 0)
(-0.0193884 -0.000898202 0)
(-0.0190659 -0.000938831 0)
(-0.0187294 -0.000978108 0)
(-0.0183795 -0.00101596 0)
(-0.0180165 -0.00105231 0)
(-0.0176411 -0.00108709 0)
(-0.0172538 -0.00112022 0)
(-0.0168552 -0.00115163 0)
(-0.0164459 -0.00118126 0)
(-0.0160265 -0.00120902 0)
(-0.0155978 -0.00123486 0)
(-0.0151604 -0.00125871 0)
(-0.0147149 -0.00128049 0)
(-0.0142622 -0.00130015 0)
(-0.013803 -0.00131762 0)
(-0.0133381 -0.00133283 0)
(-0.0128682 -0.00134574 0)
(-0.0123942 -0.00135629 0)
(-0.0119169 -0.00136441 0)
(-0.0114371 -0.00137005 0)
(-0.0109558 -0.00137318 0)
(-0.0104737 -0.00137373 0)
(-0.00999182 -0.00137167 0)
(-0.00951105 -0.00136695 0)
(-0.0090323 -0.00135955 0)
(-0.00855651 -0.00134941 0)
(-0.00808461 -0.00133653 0)
(-0.00761756 -0.00132087 0)
(-0.0071563 -0.00130242 0)
(-0.0067018 -0.00128115 0)
(-0.00625501 -0.00125707 0)
(-0.0058169 -0.00123017 0)
(-0.00538841 -0.00120045 0)
(-0.0049705 -0.00116794 0)
(-0.00456411 -0.00113264 0)
(-0.00417016 -0.00109459 0)
(-0.00378957 -0.00105384 0)
(-0.00342322 -0.00101043 0)
(-0.00307199 -0.00096443 0)
(-0.0027367 -0.000915927 0)
(-0.00241816 -0.000865017 0)
(-0.00211712 -0.000811822 0)
(-0.00183429 -0.000756486 0)
(-0.00157032 -0.00069918 0)
(-0.00132579 -0.00064011 0)
(-0.00110118 -0.000579519 0)
(-0.000896907 -0.000517699 0)
(-0.00071326 -0.000454994 0)
(-0.000550402 -0.000391819 0)
(-0.000408352 -0.000328667 0)
(-0.000286953 -0.000266132 0)
(-0.000185853 -0.000204924 0)
(-0.000104468 -0.000145899 0)
(-4.19521e-05 -9.0086e-05 0)
(2.84137e-06 -3.87229e-05 0)
(3.14004e-05 6.70645e-06 0)
(4.56001e-05 4.44334e-05 0)
(4.77528e-05 7.23691e-05 0)
(4.06242e-05 8.80804e-05 0)
(2.74894e-05 8.87971e-05 0)
(1.28339e-05 7.14385e-05 0)
(2.9011e-06 3.2452e-05 0)
(2.22962e-06 -3.78325e-05 0)
(8.6408e-06 -7.89856e-05 0)
(1.57657e-05 -9.21011e-05 0)
(1.78753e-05 -8.22556e-05 0)
(1.06488e-05 -5.3597e-05 0)
(-9.1766e-06 -9.73191e-06 0)
(-4.43257e-05 4.62263e-05 0)
(-9.70525e-05 0.000111623 0)
(-0.000169168 0.000184212 0)
(-0.000262092 0.000262102 0)
(-0.000376894 0.000343707 0)
(-0.000514338 0.000427703 0)
(-0.000674914 0.000512988 0)
(-0.000858876 0.00059864 0)
(-0.00106627 0.000683894 0)
(-0.00129696 0.000768114 0)
(-0.00155065 0.00085077 0)
(-0.00182692 0.000931423 0)
(-0.00212523 0.00100971 0)
(-0.00244495 0.00108532 0)
(-0.00278535 0.00115802 0)
(-0.00314564 0.00122759 0)
(-0.00352498 0.00129388 0)
(-0.00392246 0.00135675 0)
(-0.00433715 0.00141609 0)
(-0.00476807 0.00147183 0)
(-0.00521422 0.00152389 0)
(-0.00567458 0.00157225 0)
(-0.00614811 0.00161687 0)
(-0.00663378 0.00165774 0)
(-0.00713051 0.00169485 0)
(-0.00763726 0.00172821 0)
(-0.00815295 0.00175783 0)
(-0.00867654 0.00178375 0)
(-0.00920697 0.00180599 0)
(-0.00974319 0.00182458 0)
(-0.0102842 0.00183958 0)
(-0.0108289 0.00185102 0)
(-0.0113762 0.00185895 0)
(-0.0119253 0.00186344 0)
(-0.0124752 0.00186453 0)
(-0.0130247 0.00186229 0)
(-0.013573 0.00185678 0)
(-0.0141192 0.00184807 0)
(-0.0146622 0.00183622 0)
(-0.0152013 0.0018213 0)
(-0.0157355 0.00180339 0)
(-0.0162639 0.00178255 0)
(-0.0167857 0.00175885 0)
(-0.0173001 0.00173238 0)
(-0.0178063 0.0017032 0)
(-0.0183035 0.0016714 0)
(-0.0187909 0.00163704 0)
(-0.0192678 0.00160022 0)
(-0.0197335 0.001561 0)
(-0.0201873 0.00151946 0)
(-0.0206284 0.00147569 0)
(-0.0210564 0.00142976 0)
(-0.0214705 0.00138175 0)
(-0.0218701 0.00133176 0)
(-0.0222548 0.00127985 0)
(-0.0226238 0.00122611 0)
(-0.0229767 0.00117063 0)
(-0.023313 0.00111348 0)
(-0.0236323 0.00105476 0)
(-0.023934 0.00099454 0)
(-0.0242177 0.000932911 0)
(-0.024483 0.00086996 0)
(-0.0247297 0.000805771 0)
(-0.0249572 0.000740432 0)
(-0.0251653 0.000674031 0)
(-0.0253536 0.000606656 0)
(-0.025522 0.000538395 0)
(-0.0256701 0.000469338 0)
(-0.0257978 0.000399576 0)
(-0.0259048 0.0003292 0)
(-0.025991 0.000258301 0)
(-0.0260562 0.000186972 0)
(-0.0261004 0.000115307 0)
(-0.0261234 4.33989e-05 0)
(-0.0261252 -2.86568e-05 0)
(-0.0261058 -0.000100765 0)
(-0.0260651 -0.000172828 0)
(-0.0260033 -0.00024475 0)
(-0.0259203 -0.000316433 0)
(-0.0258162 -0.000387779 0)
(-0.0256912 -0.000458688 0)