/*--------------------------------*- C++ -*----------------------------------*\
  =========                 |
  \\      /  F ield         | OpenFOAM: The Open Source CFD Toolbox
   \\    /   O peration     | Website:  https://openfoam.org
    \\  /    A nd           | Version:  7
     \\/     M anipulation  |
\*---------------------------------------------------------------------------*/
FoamFile
{
    version     2.0;
    format      ascii;
    class       volScalarField;
    location    "0.5";
    object      p;
}
// * * * * * * * * * * * * * * * * * * * * * * * * * * * * * * * * * * * * * //

dimensions      [0 2 -2 0 0 0 0];

internalField   nonuniform List<scalar> 
1600
(
7.77506e-06
-0.00117805
-0.00390812
-0.00758236
-0.0115277
-0.0152484
-0.0183867
-0.0206902
-0.0219912
-0.0221902
-0.0212414
-0.0191428
-0.015928
-0.0116599
-0.00642578
-0.000333369
0.00649236
0.013912
0.0217742
0.0299179
0.0381751
0.0463731
0.0543374
0.0618951
0.0688787
0.0751295
0.0805029
0.0848729
0.0881379
0.0902265
0.0911037
0.0907784
0.0893106
0.0868216
0.0835047
0.0796389
0.0756048
0.0719109
0.0692254
0.0681095
0.00120187
1.1406e-05
-0.00220523
-0.00505676
-0.00809974
-0.0109689
-0.0133796
-0.0151187
-0.0160361
-0.0160359
-0.0150679
-0.0131206
-0.010215
-0.00639898
-0.00174387
0.00365968
0.0097045
0.0162696
0.0232226
0.0304221
0.0377201
0.0449647
0.0520027
0.0586827
0.0648589
0.0703945
0.0751661
0.079068
0.0820174
0.083959
0.084871
0.0847705
0.0837192
0.0818302
0.0792741
0.0762848
0.0731644
0.070289
0.0681059
0.0669956
0.00394704
0.00221938
-2.77582e-05
-0.00258742
-0.00521648
-0.00764511
-0.00964968
-0.0110585
-0.011746
-0.0116283
-0.0106594
-0.00882626
-0.00614406
-0.00265261
0.00158721
0.00649641
0.0119805
0.0179321
0.0242328
0.0307559
0.0373685
0.0439337
0.0503139
0.0563731
0.0619806
0.0670146
0.0713656
0.0749408
0.0776682
0.0795014
0.0804238
0.0804531
0.0796458
0.0781009
0.0759623
0.0734209
0.0707169
0.068132
0.0659248
0.0643074
0.00771103
0.00509957
0.00245816
-0.000171149
-0.00272657
-0.00500824
-0.00684191
-0.00809582
-0.00867157
-0.00850236
-0.00755152
-0.00580967
-0.00329164
-3.36439e-05
0.00390935
0.00846598
0.0135507
0.0190657
0.0249033
0.0309475
0.0370764
0.0431646
0.0490852
0.0547132
0.0599281
0.0646177
0.0686809
0.0720322
0.074605
0.0763557
0.0772673
0.0773533
0.07666
0.0752693
0.0732981
0.0708982
0.0682621
0.0656047
0.0630133
0.0605446
0.0119
0.00825993
0.00505084
0.00216986
-0.000488176
-0.0027794
-0.00457123
-0.00576905
-0.00630166
-0.00612072
-0.00520124
-0.00354028
-0.00115495
0.00191949
0.0056315
0.00991504
0.0146912
0.01987
0.0253519
0.0310296
0.0367903
0.0425173
0.0480922
0.0533982
0.0583223
0.0627584
0.0666111
0.0697986
0.0722563
0.0739402
0.0748301
0.0749318
0.0742798
0.0729379
0.0709969
0.0685737
0.0658218
0.0629043
0.0597506
0.0562804
0.0160879
0.0113762
0.00750673
0.00425627
0.00137336
-0.00104104
-0.00288796
-0.00410546
-0.00464773
-0.00448472
-0.00360408
-0.00201081
0.000273849
0.00321361
0.00675834
0.0108453
0.0154003
0.020339
0.0255682
0.0309875
0.0364906
0.0419674
0.047306
0.0523949
0.057126
0.061397
0.0651148
0.0681987
0.0705832
0.0722212
0.0730867
0.0731765
0.0725122
0.0711397
0.0691263
0.0665588
0.0635611
0.0602583
0.0564425
0.0519204
0.0199653
0.014187
0.00961067
0.00591477
0.00272228
0.000102749
-0.0018708
-0.00316418
-0.00375433
-0.00362841
-0.00278677
-0.00124314
0.000975901
0.00383155
0.00727342
0.0112403
0.015661
0.020455
0.0255337
0.0308013
0.0361563
0.041493
0.0467036
0.0516799
0.0563161
0.0605112
0.0641719
0.0672159
0.0695742
0.0711946
0.0720433
0.0721071
0.071394
0.0699335
0.0677719
0.0649719
0.0616357
0.057863
0.0533294
0.0477513
0.0232991
0.0164786
0.0111775
0.00699265
0.00343798
0.000560604
-0.00158613
-0.00299126
-0.0036516
-0.00357012
-0.0027594
-0.00124212
0.000949084
0.00377186
0.00717434
0.0110955
0.0154655
0.0202062
0.0252319
0.0304498
0.0357614
0.0410637
0.0462507
0.0512157
0.055853
0.0600605
0.0637428
0.0668135
0.0691983
0.0708375
0.0716884
0.0717267
0.0709472
0.0693639
0.0670053
0.0639144
0.0601791
0.0558835
0.0506034
0.0439814
0.0259072
0.0180716
0.0120428
0.00734653
0.00340003
0.000234344
-0.00211192
-0.00364722
-0.00438573
-0.00434473
-0.00354834
-0.00202814
0.000176806
0.00301991
0.00644688
0.0103958
0.014797
0.0195734
0.0246407
0.0299079
0.0352779
0.0406486
0.0459145
0.0509682
0.0557023
0.060012
0.0637974
0.0669663
0.0694371
0.0711412
0.0720253
0.0720532
0.071207
0.0694861
0.0669036
0.0634869
0.0593148
0.0544631
0.0484204
0.0407662
0.0276392
0.0188104
0.0120567
0.00683936
0.00248685
-0.000981248
-0.00353754
-0.00520701
-0.00601911
-0.00600412
-0.00519704
-0.00363819
-0.00137323
0.00154649
0.00506362
0.00911443
0.0136286
0.0185289
0.0237315
0.0291458
0.0346748
0.0402163
0.0456635
0.0509069
0.0558358
0.0603408
0.0643159
0.0676613
0.0702862
0.0721116
0.0730724
0.0731198
0.0722224
0.0703663
0.0675508
0.0637906
0.0591599
0.0537311
0.046913
0.0382288
0.028362
0.0185534
0.0110786
0.00533798
0.000575972
-0.00319643
-0.00596058
-0.00775598
-0.00862591
-0.00861267
-0.0077616
-0.00612161
-0.00374513
-0.000688601
0.00298702
0.00721562
0.0119254
0.0170383
0.0224699
0.0281291
0.0339182
0.0397335
0.045466
0.0510027
0.0562281
0.0610267
0.0652847
0.068893
0.0717502
0.0737649
0.0748591
0.0749701
0.0740526
0.0720792
0.0690368
0.0649293
0.0598289
0.0538085
0.0462006
0.0364752
0.0279501
0.0171654
0.00897168
0.0027098
-0.00245775
-0.00652689
-0.00948628
-0.0113888
-0.0122906
-0.0122455
-0.0113089
-0.00953839
-0.00699319
-0.00373516
0.000170704
0.00465543
0.00964522
0.0150607
0.0208161
0.0268192
0.0329708
0.0391649
0.0452893
0.0512266
0.0568554
0.0620524
0.0666947
0.0706622
0.0738409
0.0761258
0.0774239
0.0776573
0.0767659
0.0747084
0.0714589
0.0670117
0.0614387
0.0548157
0.0463993
0.0356065
0.0262781
0.0145113
0.00559803
-0.00118067
-0.00674429
-0.0110949
-0.0142279
-0.016209
-0.0171071
-0.0169875
-0.0159157
-0.0139579
-0.0111806
-0.00765134
-0.00343943
0.00138293
0.00673961
0.0125494
0.0187253
0.0251731
0.0317917
0.0384724
0.0450992
0.0515493
0.0576944
0.0634026
0.0685399
0.072974
0.0765763
0.0792261
0.0808138
0.0812444
0.0804409
0.0783471
0.0749236
0.0701549
0.0641133
0.0568786
0.0476293
0.035728
0.023215
0.0104514
0.000814507
-0.00647514
-0.0124208
-0.0170309
-0.0203073
-0.0223292
-0.0231786
-0.0229325
-0.0216671
-0.0194576
-0.0163781
-0.0125021
-0.00790375
-0.00265852
0.00315491
0.00945349
0.0161485
0.0231441
0.0303371
0.0376157
0.0448595
0.0519402
0.0587219
0.0650626
0.0708166
0.0758371
0.0799793
0.0831046
0.0850842
0.0858035
0.0851668
0.0831003
0.0795497
0.0744882
0.0679885
0.0601345
0.050022
0.0369562
0.0186206
0.00483654
-0.00553115
-0.0133246
-0.019634
-0.0244746
-0.0278559
-0.0298712
-0.0306166
-0.0301821
-0.0286552
-0.026121
-0.0226618
-0.0183575
-0.013287
-0.00752946
-0.00116602
0.0057185
0.0130339
0.0206831
0.0285606
0.0365519
0.0445324
0.0523677
0.0599137
0.0670182
0.0735221
0.0792627
0.084077
0.0878056
0.090298
0.0914169
0.0910445
0.0890865
0.0854706
0.0801568
0.0732167
0.0647378
0.0537264
0.0394261
0.0123414
-0.00249499
-0.013604
-0.0218928
-0.0285427
-0.0335775
-0.0370154
-0.0389659
-0.0395409
-0.0388448
-0.036978
-0.0340366
-0.0301117
-0.0252902
-0.019656
-0.013292
-0.00628155
0.00128908
0.0093288
0.0177396
0.0264147
0.0352371
0.0440785
0.0527987
0.0612452
0.0692549
0.0766546
0.0832641
0.0888999
0.0933793
0.0965263
0.0981773
0.0981881
0.0964399
0.0928383
0.0873263
0.0799724
0.070866
0.0589152
0.0432968
0.0042076
-0.0117217
-0.0235855
-0.032359
-0.0393206
-0.044504
-0.0479391
-0.0497537
-0.0500785
-0.0490345
-0.046737
-0.0432945
-0.0388081
-0.0333723
-0.0270765
-0.0200067
-0.0122484
-0.00388853
0.00498173
0.0142644
0.0238525
0.0336276
0.0434584
0.0531996
0.062691
0.0717579
0.0802126
0.087856
0.0944818
0.099881
0.103848
0.106189
0.106727
0.105313
0.101826
0.096187
0.0884572
0.0787256
0.0657911
0.0487579
-0.0059704
-0.0230429
-0.0356781
-0.0449226
-0.052159
-0.0574343
-0.0607926
-0.0623846
-0.062363
-0.0608688
-0.0580348
-0.053984
-0.0488289
-0.0426723
-0.0356092
-0.0277288
-0.0191178
-0.00986279
-5.39036e-05
0.0102124
0.0208304
0.0316818
0.042634
0.0535377
0.0642256
0.0745124
0.0841949
0.0930543
0.100859
0.107371
0.112351
0.115567
0.116805
0.11588
0.112634
0.106959
0.0989063
0.0885591
0.0745942
0.0560361
-0.018406
-0.0366835
-0.0501099
-0.059807
-0.067271
-0.0725661
-0.0757556
-0.0770179
-0.0765331
-0.0744666
-0.0709719
-0.0661893
-0.0602445
-0.0532495
-0.045305
-0.0365031
-0.0269305
-0.0166723
-0.0058156
0.00554653
0.0173115
0.0293638
0.0415712
0.0537825
0.0658252
0.0775039
0.0886006
0.0988758
0.108071
0.115915
0.12213
0.126441
0.128588
0.128338
0.125491
0.1199
0.111596
0.100653
0.08561
0.065403
-0.0333417
-0.0529006
-0.0671413
-0.0772657
-0.0848957
-0.0901181
-0.0930222
-0.0938216
-0.0927304
-0.0899442
-0.085642
-0.0799844
-0.0731125
-0.0651485
-0.056199
-0.046358
-0.0357111
-0.0243399
-0.0123264
0.000242489
0.0132703
0.0266465
0.0402429
0.0539088
0.0674688
0.0807198
0.0934297
0.105338
0.116159
0.125584
0.13329
0.138954
0.142258
0.142913
0.140662
0.135307
0.12685
0.115348
0.099179
0.0771842
-0.0510555
-0.0719916
-0.0870733
-0.0975895
-0.105303
-0.110333
-0.112803
-0.112971
-0.111097
-0.107411
-0.102126
-0.0954265
-0.0874704
-0.0783917
-0.0683026
-0.0572981
-0.0454608
-0.0328663
-0.0195885
-0.0057051
0.00869713
0.0235168
0.0386327
0.0538992
0.0691411
0.0841505
0.0986836
0.11246
0.125165
0.136449
0.145943
0.153261
0.158022
0.159863
0.158454
0.153531
0.145054
0.133048
0.11571
0.0917705
-0.0718714
-0.0943057
-0.110259
-0.121116
-0.128803
-0.133481
-0.135323
-0.134648
-0.131768
-0.126965
-0.120486
-0.112547
-0.103327
-0.0929703
-0.0815952
-0.0692958
-0.0561493
-0.042222
-0.0275762
-0.0122762
0.00360515
0.0199802
0.0367399
0.053748
0.0708345
0.087791
0.104366
0.12026
0.135131
0.148589
0.160208
0.169534
0.176107
0.179477
0.17922
0.174984
0.166665
0.154241
0.135693
0.109633
-0.0961726
-0.120261
-0.137121
-0.148243
-0.15575
-0.159865
-0.160828
-0.159035
-0.154872
-0.14868
-0.140754
-0.131344
-0.120651
-0.108834
-0.0960136
-0.0822813
-0.0677053
-0.0523388
-0.0362278
-0.0194183
-0.00196384
0.0160671
0.0345835
0.0534647
0.072552
0.0916425
0.110481
0.128757
0.1461
0.162078
0.176206
0.187955
0.196768
0.202086
0.20337
0.200148
0.192227
0.179511
0.159726
0.131341
-0.124422
-0.150365
-0.168168
-0.179446
-0.18656
-0.189825
-0.189575
-0.186313
-0.180515
-0.172599
-0.162918
-0.151763
-0.139359
-0.125878
-0.111441
-0.0961323
-0.0800074
-0.0631011
-0.0454376
-0.0270389
-0.00793284
0.0118379
0.0322074
0.0530777
0.0743097
0.0957132
0.117038
0.137967
0.158108
0.176988
0.194062
0.208714
0.220277
0.228061
0.231376
0.229595
0.222395
0.209572
0.188535
0.157591
-0.157191
-0.185254
-0.204033
-0.215299
-0.221721
-0.223743
-0.221838
-0.216647
-0.208769
-0.198716
-0.186911
-0.173689
-0.159302
-0.14393
-0.127693
-0.110663
-0.0928742
-0.0743377
-0.0550492
-0.0349997
-0.0141843
0.0073876
0.0296834
0.052637
0.0761375
0.100018
0.124044
0.1479
0.171181
0.19338
0.21389
0.232003
0.246927
0.257812
0.263779
0.263997
0.25796
0.245297
0.223021
0.189237
-0.195205
-0.225735
-0.245511
-0.25651
-0.261807
-0.262047
-0.257894
-0.250179
-0.239658
-0.226959
-0.212586
-0.196922
-0.180244
-0.162737
-0.14451
-0.125614
-0.106056
-0.0858148
-0.0648494
-0.0431118
-0.0205568
0.00284848
0.0271136
0.0522141
0.078079
0.104577
0.131501
0.158553
0.185327
0.211292
0.235786
0.258005
0.277019
0.291789
0.3012
0.304152
0.29988
0.287768
0.264308
0.227348
-0.239409
-0.272861
-0.293623
-0.303956
-0.307504
-0.30521
-0.298013
-0.287
-0.273127
-0.25716
-0.239693
-0.221159
-0.201851
-0.181949
-0.161539
-0.140643
-0.119229
-0.0972321
-0.0745661
-0.0511353
-0.0268448
-0.0016111
0.0246277
0.0518999
0.080187
0.109408
0.1394
0.169901
0.200521
0.230724
0.259804
0.28687
0.310843
0.330467
0.344337
0.350999
0.349331
0.338342
0.313825
0.273276
-0.291072
-0.328045
-0.349703
-0.35874
-0.359621
-0.353742
-0.342432
-0.327119
-0.309006
-0.289022
-0.267851
-0.245967
-0.223665
-0.201104
-0.178332
-0.155323
-0.131993
-0.108224
-0.083871
-0.0587823
-0.032804
-0.00579228
0.0223771
0.051797
0.0825153
0.114518
0.147707
0.181877
0.216683
0.25161
0.285933
0.318689
0.348651
0.374326
0.393959
0.405643
0.407752
0.398745
0.373427
0.328775
-0.35195
-0.393219
-0.415521
-0.422254
-0.419109
-0.408167
-0.391311
-0.37041
-0.346963
-0.322073
-0.296507
-0.270755
-0.24509
-0.219621
-0.194335
-0.169139
-0.143878
-0.118366
-0.0923891
-0.0657286
-0.0381626
-0.00947789
0.020522
0.0520063
0.0851037
0.119885
0.156341
0.194353
0.233654
0.273787
0.31405
0.35344
0.390606
0.423807
0.450886
0.469364
0.476923
0.4712
0.445565
0.396177
-0.424567
-0.4711
-0.493461
-0.496254
-0.487052
-0.468972
-0.444657
-0.416531
-0.386427
-0.355612
-0.324898
-0.294751
-0.265376
-0.236794
-0.208898
-0.1815
-0.154355
-0.127191
-0.0997161
-0.0716317
-0.0426406
-0.0124521
0.0192115
0.0526064
0.0879568
0.125438
0.165154
0.207107
0.251152
0.296941
0.343856
0.390917
0.4367
0.479237
0.515933
0.543611
0.55903
0.558606
0.533568
0.478693
-0.512687
-0.565605
-0.586758
-0.582927
-0.564623
-0.536497
-0.5022
-0.464811
-0.426499
-0.388635
-0.352006
-0.316974
-0.283611
-0.251795
-0.221283
-0.191757
-0.162861
-0.134218
-0.105445
-0.0761587
-0.0459776
-0.0145277
0.0185563
0.0536269
0.0910157
0.131021
0.173889
0.219779
0.268719
0.320544
0.374798
0.430627
0.486628
0.54069
0.589793
0.629954
0.656735
0.664791
0.642073
0.580922
-0.622181
-0.682503
-0.699817
-0.684927
-0.65295
-0.610738
-0.563193
-0.514084
-0.465825
-0.419761
-0.376511
-0.33622
-0.298727
-0.263696
-0.230693
-0.199236
-0.168831
-0.138982
-0.109205
-0.0790219
-0.047967
-0.0155797
0.0185965
0.0550152
0.0941255
0.136365
0.182146
0.231826
0.285667
0.343768
0.405954
0.471637
0.539609
0.60778
0.672824
0.729932
0.773204
0.794822
0.777712
0.709775
-0.762665
-0.830471
-0.838574
-0.805283
-0.752826
-0.691011
-0.626117
-0.562462
-0.502454
-0.447145
-0.396766
-0.351065
-0.309525
-0.271504
-0.236318
-0.203286
-0.171751
-0.141086
-0.110699
-0.0800195
-0.0484952
-0.0155819
0.0192662
0.0566042
0.0970023
0.141048
0.18934
0.242475
0.301009
0.3654
0.435901
0.512389
0.594115
0.679322
0.764681
0.844735
0.911997
0.955377
0.950204
0.876241
-0.950829
-1.02278
-1.01076
-0.946971
-0.86406
-0.775345
-0.688216
-0.607034
-0.533661
-0.468409
-0.410782
-0.359896
-0.314723
-0.274221
-0.237397
-0.203337
-0.171207
-0.140248
-0.109757
-0.0790774
-0.0475787
-0.0146406
0.0203637
0.0580836
0.0992066
0.144471
0.194676
0.250683
0.3134
0.383747
0.462565
0.550456
0.647507
0.752806
0.86364
0.974491
1.07658
1.15498
1.17409
1.09894
-1.21718
-1.27972
-1.22551
-1.11154
-0.984072
-0.859371
-0.744752
-0.643426
-0.555738
-0.480566
-0.416236
-0.360955
-0.313024
-0.27091
-0.233275
-0.198955
-0.166941
-0.136344
-0.106368
-0.0762813
-0.0453916
-0.0130182
0.0215307
0.0589828
0.100128
0.145844
0.197126
0.25511
0.321094
0.396542
0.483049
0.582236
0.695508
0.823559
0.965371
1.11672
1.26884
1.40348
1.47115
1.41123
-1.61771
-1.63095
-1.49153
-1.29672
-1.10589
-0.935005
-0.788312
-0.665545
-0.563982
-0.480138
-0.410639
-0.352514
-0.303265
-0.26083
-0.223516
-0.189929
-0.158906
-0.129455
-0.100712
-0.0718953
-0.0422737
-0.0111308
0.0222653
0.0586949
0.0990221
0.144236
0.195498
0.254199
0.322024
0.40102
0.493657
0.602848
0.731862
0.883979
1.06156
1.26423
1.48651
1.71008
1.8724
1.87275
-2.25446
-2.11587
-1.81359
-1.49442
-1.21742
-0.990513
-0.809415
-0.666452
-0.553623
-0.464011
-0.392065
-0.333469
-0.284901
-0.243803
-0.208187
-0.176483
-0.147428
-0.119973
-0.0932232
-0.0663836
-0.0387146
-0.00949507
0.0220147
0.0566118
0.0951941
0.138813
0.188743
0.246565
0.314289
0.394501
0.490566
0.606857
0.748991
0.923946
1.13978
1.40421
1.72094
2.07939
2.41785
2.58911
-3.35592
-2.78318
-2.1727
-1.67585
-1.29258
-1.00573
-0.794147
-0.637271
-0.519327
-0.429171
-0.358971
-0.30318
-0.257837
-0.220058
-0.187701
-0.159136
-0.133079
-0.108494
-0.0845071
-0.0603506
-0.0353162
-0.00871432
0.0201646
0.0520908
0.0879424
0.128766
0.175858
0.230875
0.295998
0.374171
0.469455
0.58755
0.736531
0.927897
1.17798
1.50834
1.94099
2.49108
3.15796
3.79444
-5.52067
-3.66081
-2.43095
-1.71417
-1.24179
-0.921812
-0.704865
-0.553967
-0.44549
-0.365207
-0.304185
-0.256569
-0.218401
-0.18692
-0.160128
-0.136536
-0.114989
-0.0945597
-0.0744744
-0.0540545
-0.0326752
-0.00972856
0.0154116
0.0434267
0.0750981
0.111363
0.153394
0.202714
0.261366
0.332192
0.419274
0.528675
0.66968
0.857074
1.11541
1.48391
2.01598
2.8054
4.12342
6.0914
-9.20662
-4.51956
-2.30622
-1.42119
-0.95894
-0.682905
-0.51225
-0.400579
-0.322912
-0.266412
-0.223889
-0.190911
-0.164569
-0.142854
-0.12431
-0.107839
-0.092581
-0.077838
-0.0630197
-0.0476048
-0.0311105
-0.0130657
0.00701463
0.0296561
0.0554574
0.0851315
0.119562
0.159888
0.207629
0.264896
0.33475
0.421854
0.533758
0.683746
0.89745
1.22411
1.75391
2.73326
5.06142
9.86893
)
;

boundaryField
{
    movingWall
    {
        type            zeroGradient;
    }
    fixedWalls
    {
        type            zeroGradient;
    }
    frontAndBack
    {
        type            empty;
    }
}


// ************************************************************************* //
