/*--------------------------------*- C++ -*----------------------------------*\
  =========                 |
  \\      /  F ield         | OpenFOAM: The Open Source CFD Toolbox
   \\    /   O peration     | Website:  https://openfoam.org
    \\  /    A nd           | Version:  7
     \\/     M anipulation  |
\*---------------------------------------------------------------------------*/
FoamFile
{
    version     2.0;
    format      ascii;
    class       volScalarField;
    location    "0.45";
    object      p;
}
// * * * * * * * * * * * * * * * * * * * * * * * * * * * * * * * * * * * * * //

dimensions      [0 2 -2 0 0 0 0];

internalField   nonuniform List<scalar> 
6400
(
5.15884e-06
2.10989e-05
-0.0004852
-0.00151828
-0.00296101
-0.00470313
-0.00664429
-0.00869494
-0.0107779
-0.0128276
-0.0147891
-0.0166161
-0.0182703
-0.0197198
-0.0209388
-0.0219067
-0.0226072
-0.0230283
-0.0231614
-0.023001
-0.0225447
-0.0217927
-0.0207473
-0.0194131
-0.0177965
-0.0159059
-0.013751
-0.0113432
-0.00869507
-0.00582047
-0.00273443
0.00054701
0.00400686
0.00762726
0.0113895
0.0152743
0.0192616
0.0233307
0.0274606
0.0316298
0.0358165
0.0399986
0.0441538
0.0482599
0.0522945
0.0562358
0.0600617
0.0637509
0.0672825
0.0706362
0.0737926
0.0767333
0.0794408
0.0818991
0.0840935
0.0860111
0.0876405
0.0889727
0.0900007
0.0907198
0.0911281
0.0912265
0.0910191
0.0905132
0.0897199
0.0886542
0.0873354
0.0857877
0.0840406
0.0821291
0.0800952
0.0779879
0.0758648
0.0737929
0.0718497
0.0701237
0.0687121
0.0677191
0.0672513
0.0672891
-3.0973e-06
1.05124e-05
-0.00044321
-0.00132677
-0.00254093
-0.00400647
-0.00564751
-0.00739165
-0.00917365
-0.0109362
-0.0126297
-0.0142116
-0.0156458
-0.0169019
-0.017955
-0.0187846
-0.0193744
-0.0197121
-0.0197885
-0.0195975
-0.0191358
-0.0184027
-0.0173997
-0.0161302
-0.0145997
-0.0128153
-0.0107857
-0.00852113
-0.00603295
-0.0033339
-0.000437762
0.00264062
0.00588549
0.00928023
0.0128074
0.016449
0.0201862
0.0239997
0.0278699
0.0317765
0.0356991
0.0396171
0.0435097
0.0473559
0.051135
0.0548265
0.0584099
0.0618655
0.0651737
0.0683159
0.0712742
0.0740315
0.076572
0.078881
0.0809453
0.0827533
0.0842951
0.0855627
0.0865503
0.0872543
0.0876738
0.0878104
0.0876688
0.0872569
0.0865859
0.0856708
0.0845306
0.0831887
0.0816732
0.0800173
0.0782599
0.0764461
0.0746273
0.0728619
0.0712153
0.0697589
0.0685657
0.0677106
0.0672874
0.0673264
0.00050372
0.000465703
1.17243e-05
-0.000804382
-0.00189534
-0.00319785
-0.00465072
-0.00619385
-0.00777162
-0.00933398
-0.0108366
-0.0122409
-0.0135134
-0.0146258
-0.0155543
-0.0162792
-0.0167848
-0.0170586
-0.0170914
-0.016877
-0.0164116
-0.0156938
-0.0147245
-0.0135065
-0.0120445
-0.0103448
-0.00841515
-0.00626494
-0.00390466
-0.00134608
0.00139796
0.00431364
0.00738616
0.0105999
0.0139386
0.0173851
0.0209218
0.0245304
0.0281923
0.0318886
0.0355998
0.0393065
0.042989
0.0466276
0.0502028
0.0536951
0.0570854
0.0603549
0.0634856
0.0664599
0.069261
0.0718731
0.0742815
0.0764727
0.0784344
0.0801561
0.0816288
0.0828454
0.0838011
0.0844928
0.0849203
0.0850856
0.0849938
0.0846528
0.0840737
0.0832713
0.0822638
0.0810736
0.079727
0.0782552
0.0766939
0.0750839
0.0734712
0.0719068
0.0704467
0.0691501
0.0680761
0.067285
0.0668625
0.0668601
0.00153675
0.00135175
0.00082796
8.55851e-06
-0.00103976
-0.00226341
-0.00361064
-0.00503072
-0.00647603
-0.00790296
-0.00927234
-0.0105494
-0.0117039
-0.0127096
-0.0135445
-0.01419
-0.0146311
-0.0148559
-0.0148555
-0.0146235
-0.0141561
-0.0134517
-0.0125107
-0.0113356
-0.0099303
-0.00830067
-0.00645385
-0.00439843
-0.00214421
0.000297829
0.00291563
0.00569618
0.00862554
0.011689
0.014871
0.0181554
0.0215255
0.0249639
0.0284531
0.0319748
0.0355108
0.0390425
0.0425511
0.0460181
0.0494248
0.0527528
0.055984
0.0591006
0.0620854
0.0649218
0.0675941
0.0700874
0.0723878
0.0744827
0.0763607
0.0780119
0.0794282
0.0806031
0.0815322
0.082213
0.0826455
0.082832
0.0827777
0.0824902
0.0819804
0.0812624
0.0803533
0.0792743
0.0780499
0.0767087
0.0752834
0.0738106
0.0723312
0.07089
0.0695349
0.0683164
0.0672849
0.066492
0.0660057
0.0658701
0.00298575
0.00257426
0.00192261
0.0010503
-5.44712e-06
-0.00119978
-0.00248881
-0.00383023
-0.00518378
-0.00651196
-0.00778056
-0.00895888
-0.0100198
-0.0109396
-0.0116982
-0.0122784
-0.0126663
-0.0128506
-0.012823
-0.0125773
-0.0121098
-0.0114186
-0.0105041
-0.00936832
-0.00801494
-0.0064492
-0.00467775
-0.00270856
-0.000550809
0.00178521
0.00428816
0.00694576
0.00974485
0.0126715
0.015711
0.018848
0.0220666
0.0253504
0.0286825
0.0320458
0.0354227
0.0387957
0.0421469
0.0454585
0.0487128
0.0518923
0.0549798
0.0579585
0.0608119
0.0635243
0.0660809
0.0684675
0.070671
0.0726795
0.0744824
0.0760704
0.0774359
0.0785729
0.0794774
0.0801472
0.0805825
0.0807857
0.0807617
0.0805179
0.0800646
0.079415
0.0785852
0.0775948
0.0764662
0.0752256
0.0739022
0.072529
0.0711416
0.0697788
0.0684817
0.0672928
0.0662552
0.0654127
0.0648063
0.0644585
0.00474857
0.00406019
0.00323754
0.00227203
0.00116746
-3.90805e-05
-0.00131034
-0.00261162
-0.00390934
-0.00517166
-0.00636913
-0.00747497
-0.00846527
-0.00931897
-0.0100179
-0.0105466
-0.0108923
-0.0110448
-0.0109961
-0.0107406
-0.0102748
-0.00959694
-0.00870725
-0.00760758
-0.00630133
-0.00479337
-0.00308992
-0.00119845
0.000872428
0.003113
0.00551257
0.00805952
0.0107414
0.0135449
0.0164562
0.0194606
0.0225431
0.0256879
0.028879
0.0321001
0.0353344
0.0385652
0.0417754
0.044948
0.0480662
0.0511133
0.0540727
0.0569285
0.059665
0.0622673
0.0647211
0.0670131
0.0691308
0.0710628
0.0727991
0.074331
0.0756512
0.0767541
0.0776359
0.0782947
0.0787306
0.0789459
0.0789452
0.0787355
0.0783264
0.07773
0.0769614
0.0760381
0.0749809
0.073813
0.0725608
0.071253
0.0699209
0.0685978
0.0673184
0.0661179
0.0650335
0.0641018
0.0633325
0.0627216
0.00673447
0.00574099
0.00471752
0.00362718
0.00243988
0.00118614
-0.000102229
-0.0013972
-0.0026712
-0.00389753
-0.00505115
-0.00610904
-0.0070504
-0.0078568
-0.00851215
-0.00900272
-0.00931708
-0.00944601
-0.00938239
-0.00912113
-0.00865898
-0.00799452
-0.00712797
-0.0060611
-0.00479716
-0.00334077
-0.00169779
0.000124711
0.00211856
0.00427457
0.00658258
0.00903156
0.0116097
0.0143043
0.0171021
0.0199894
0.0229515
0.0259736
0.0290403
0.0321359
0.0352446
0.0383502
0.0414364
0.044487
0.0474858
0.0504168
0.0532643
0.0560127
0.0586473
0.0611536
0.063518
0.0657277
0.0677708
0.0696364
0.0713149
0.0727979
0.0740784
0.0751511
0.0760123
0.0766601
0.0770945
0.0773175
0.0773334
0.0771486
0.0767718
0.0762141
0.0754891
0.0746129
0.0736039
0.0724831
0.0712734
0.0700003
0.0686906
0.0673729
0.066076
0.064829
0.063664
0.0626117
0.0616494
0.060746
0.00886417
0.00755211
0.00630872
0.00507042
0.0037743
0.00244564
0.00111189
-0.000204739
-0.001482
-0.00269779
-0.00383111
-0.00486244
-0.005774
-0.00654986
-0.00717606
-0.0076406
-0.00793345
-0.00804654
-0.0079736
-0.00771019
-0.00725356
-0.00660255
-0.00575756
-0.00472041
-0.00349426
-0.00208356
-0.000493946
0.00126783
0.00319398
0.00527573
0.0075034
0.00986646
0.0123536
0.0149528
0.0176514
0.020436
0.0232928
0.0262077
0.0291657
0.032152
0.0351512
0.0381478
0.0411263
0.044071
0.0469663
0.0497969
0.0525475
0.0552034
0.0577502
0.060174
0.0624617
0.0646009
0.0665801
0.0683889
0.0700178
0.0714588
0.0727051
0.0737514
0.0745941
0.0752311
0.0756622
0.0758891
0.0759156
0.0757474
0.0753923
0.0748603
0.0741635
0.0733165
0.0723355
0.071239
0.0700474
0.0687824
0.0674674
0.0661263
0.0647832
0.0634617
0.0621898
0.0609933
0.0598183
0.058608
0.0110706
0.00943605
0.00796167
0.00655918
0.00513481
0.00370976
0.00230808
0.000946997
-0.000355872
-0.00158252
-0.00271558
-0.00373879
-0.00463715
-0.00539718
-0.00600694
-0.00645619
-0.00673633
-0.00684044
-0.00676321
-0.00650091
-0.00605135
-0.00541377
-0.00458879
-0.00357837
-0.00238568
-0.00101509
0.000527916
0.00223683
0.00410416
0.00612147
0.00827948
0.0105681
0.0129765
0.0154931
0.0181058
0.0208018
0.0235678
0.0263901
0.0292545
0.0321467
0.0350518
0.037955
0.0408412
0.0436953
0.0465023
0.0492474
0.0519158
0.0544932
0.0569657
0.0593199
0.061543
0.0636229
0.0655486
0.0673097
0.0688971
0.0703028
0.0715202
0.0725439
0.0733702
0.0739969
0.0744234
0.0746511
0.074683
0.0745241
0.0741813
0.0736636
0.0729816
0.0721481
0.0711775
0.070086
0.0688913
0.0676122
0.0662686
0.0648806
0.063468
0.0620499
0.0606511
0.0592937
0.0578942
0.0563719
0.0132979
0.0113427
0.00963186
0.00805437
0.00648758
0.00494971
0.00346229
0.00203834
0.000691467
-0.000563901
-0.00171367
-0.0027445
-0.003644
-0.00440095
-0.0050054
-0.00544878
-0.00572392
-0.00582508
-0.00574794
-0.00548954
-0.00504829
-0.00442389
-0.00361727
-0.00263059
-0.00146712
-0.000131214
0.00137174
0.00303539
0.00485245
0.00681479
0.00891344
0.0111387
0.0134801
0.0159265
0.0184662
0.021087
0.023776
0.02652
0.0293054
0.0321181
0.034944
0.0377687
0.0405775
0.0433559
0.0460893
0.0487632
0.0513634
0.0538759
0.0562872
0.0585842
0.0607543
0.0627859
0.064668
0.0663904
0.0679442
0.0693213
0.0705151
0.0715202
0.0723326
0.0729498
0.0733709
0.0735967
0.0736297
0.073474
0.0731356
0.0726222
0.0719432
0.0711098
0.0701345
0.0690314
0.0678157
0.0665037
0.0651121
0.063658
0.0621573
0.0606253
0.0590846
0.0575548
0.0559245
0.0540911
0.0154992
0.0132286
0.0112797
0.00952036
0.00780111
0.0061381
0.00455108
0.00304956
0.0016437
0.000344848
-0.000835805
-0.00188755
-0.00280038
-0.00356518
-0.00417387
-0.00461949
-0.00489627
-0.00499965
-0.00492627
-0.00467401
-0.00424191
-0.00363016
-0.00284009
-0.0018741
-0.000735597
0.000570987
0.0020403
0.00366608
0.0054412
0.00735775
0.00940703
0.0115796
0.0138654
0.0162536
0.0187329
0.0212915
0.0239169
0.0265963
0.0293166
0.0320642
0.0348253
0.0375858
0.0403317
0.0430487
0.0457226
0.0483393
0.0508849
0.0533457
0.0557085
0.0579603
0.0600891
0.062083
0.0639312
0.0656238
0.0671517
0.068507
0.0696827
0.0706732
0.0714745
0.0720836
0.0724991
0.0727213
0.0727519
0.0725943
0.0722536
0.0717361
0.0710502
0.0702053
0.0692124
0.0680836
0.0668319
0.0654713
0.0640158
0.0624798
0.0608762
0.059217
0.0575236
0.0558136
0.05395
0.0518098
0.0176351
0.0150561
0.0128699
0.0109248
0.00904628
0.00724907
0.00555183
0.00396115
0.00248429
0.00112991
-9.33182e-05
-0.00117704
-0.00211342
-0.00289527
-0.00351626
-0.00397097
-0.00425495
-0.0043648
-0.00429815
-0.00405368
-0.00363111
-0.00303118
-0.0022556
-0.00130709
-0.000189264
0.00109335
0.00253535
0.00413053
0.00587188
0.0077516
0.00976122
0.0118916
0.0141328
0.0164744
0.0189055
0.0214145
0.0239893
0.0266176
0.0292864
0.0319826
0.0346928
0.0374032
0.0401002
0.0427697
0.0453979
0.0479709
0.0504752
0.0528972
0.0552238
0.0574425
0.0595409
0.0615077
0.0633319
0.0650035
0.0665134
0.0678535
0.0690167
0.0699973
0.0707905
0.0713933
0.0718037
0.0720212
0.072047
0.0718836
0.0715349
0.0710065
0.0703053
0.0694393
0.068418
0.0672517
0.0659516
0.0645293
0.062997
0.0613665
0.0596483
0.0578519
0.0559978
0.0541027
0.0520056
0.0495646
0.0196722
0.0167923
0.0143712
0.0122385
0.0101962
0.0082583
0.00644285
0.00475401
0.00319663
0.00177704
0.000501721
-0.000623058
-0.0015914
-0.0023979
-0.00303785
-0.00350726
-0.00380295
-0.00392265
-0.00386494
-0.00362932
-0.00321618
-0.00262682
-0.00186342
-0.000928993
0.000172577
0.00143661
0.00285764
0.00442943
0.00614501
0.00799673
0.00997622
0.0120745
0.014282
0.0165884
0.0189831
0.0214548
0.0239917
0.0265818
0.0292124
0.0318707
0.0345436
0.0372176
0.0398793
0.042515
0.0451109
0.0476536
0.0501295
0.0525253
0.054828
0.0570251
0.0591044
0.0610545
0.0628642
0.0645237
0.0660236
0.0673555
0.0685122
0.0694876
0.0702765
0.0708754
0.0712817
0.0714944
0.0715138
0.0713416
0.0709808
0.0704359
0.0697126
0.0688177
0.067759
0.0665455
0.0651866
0.0636922
0.0620725
0.0603375
0.0584956
0.0565543
0.0545338
0.0524507
0.0501212
0.0473859
0.0215819
0.0184087
0.0157556
0.0134349
0.0112261
0.00914294
0.00720335
0.0054095
0.00376416
0.0022717
0.000936701
-0.000236431
-0.00124353
-0.00208083
-0.00274507
-0.00323363
-0.00354455
-0.0036766
-0.0036293
-0.00340295
-0.00299863
-0.00241822
-0.00166433
-0.00074036
0.000349535
0.00160048
0.00300689
0.00456248
0.00626028
0.00809268
0.0100514
0.0121277
0.014312
0.0165944
0.0189643
0.0214107
0.0239222
0.0264868
0.0290922
0.0317258
0.0343747
0.0370257
0.0396655
0.0422806
0.0448576
0.0473829
0.0498432
0.0522253
0.0545162
0.0567033
0.0587746
0.0607183
0.0625234
0.0641797
0.0656777
0.0670087
0.0681652
0.0691406
0.0699293
0.0705273
0.0709313
0.0711398
0.0711521
0.0709693
0.0705934
0.0700278
0.0692771
0.0683468
0.0672437
0.0659752
0.0645491
0.0629741
0.0612585
0.059411
0.0574382
0.0553462
0.0531556
0.0508827
0.0483227
0.0452993
0.023339
0.0198796
0.016998
0.0144897
0.0121128
0.00988147
0.00781348
0.00590949
0.0041705
0.00259924
0.0011986
-2.862e-05
-0.00107982
-0.00195271
-0.00264538
-0.00315647
-0.00348515
-0.0036312
-0.00359505
-0.00337778
-0.00298115
-0.00240759
-0.00166022
-0.000742807
0.000340198
0.00158369
0.00298193
0.00452854
0.00621652
0.00803826
0.00998557
0.0120497
0.0142213
0.0164906
0.0188472
0.0212802
0.0237783
0.0263299
0.0289229
0.0315447
0.0341827
0.0368238
0.0394549
0.0420627
0.0446337
0.0471546
0.049612
0.0519927
0.0542838
0.0564726
0.0585468
0.0604947
0.0623051
0.0639674
0.0654719
0.0668096
0.0679725
0.0689536
0.0697468
0.0703475
0.0707519
0.0709575
0.0709632
0.0707689
0.0703759
0.0697866
0.0690045
0.0680342
0.066881
0.0655511
0.0640513
0.0623887
0.0605707
0.0586043
0.0564952
0.0542482
0.0518844
0.0494209
0.0466324
0.0433266
0.0249214
0.0211823
0.0180756
0.0153806
0.0128351
0.0104535
0.00825419
0.00623631
0.00439944
0.00274488
0.00127409
-1.15881e-05
-0.00111094
-0.002023
-0.00274713
-0.00328311
-0.00363117
-0.00379207
-0.0037671
-0.00355809
-0.00316747
-0.00259825
-0.00185401
-0.00093894
0.000142196
0.00138405
0.00278069
0.00432561
0.00601175
0.00783148
0.00977661
0.0118384
0.0140077
0.0162748
0.0186292
0.0210605
0.0235574
0.0261083
0.0287014
0.0313242
0.0339642
0.0366085
0.0392439
0.0418574
0.0444354
0.0469646
0.0494317
0.0518234
0.0541267
0.0563287
0.0584171
0.0603799
0.0622056
0.0638834
0.0654031
0.0667554
0.0679318
0.0689248
0.0697279
0.0703355
0.0707435
0.0709486
0.0709488
0.0707433
0.0703324
0.0697177
0.0689015
0.0678875
0.06668
0.065284
0.0637053
0.0619499
0.0600241
0.057934
0.0556842
0.0532789
0.0507398
0.0480851
0.04507
0.0414864
0.0263094
0.0222961
0.0189673
0.0160868
0.0133727
0.0108398
0.00850713
0.00637273
0.00443493
0.00269382
0.00114957
-0.000197733
-0.00134813
-0.00230186
-0.00305945
-0.00362173
-0.00398995
-0.00416577
-0.0041513
-0.00394912
-0.00356231
-0.00299443
-0.00224956
-0.0013323
-0.000247739
0.000998493
0.00240026
0.00395091
0.00564327
0.00746965
0.00942186
0.0114912
0.0136685
0.015944
0.0183076
0.0207487
0.0232562
0.0258187
0.0284243
0.0310607
0.0337155
0.0363758
0.0390286
0.0416607
0.0442586
0.0468089
0.0492983
0.0517134
0.054041
0.056268
0.0583819
0.0603704
0.0622218
0.0639247
0.0654687
0.066844
0.0680416
0.0690533
0.069872
0.0704917
0.0709074
0.071115
0.0711119
0.0708964
0.0704678
0.0698269
0.0689752
0.0679152
0.0666504
0.0651849
0.0635234
0.0616711
0.0596334
0.0574157
0.0550219
0.0524556
0.0497396
0.0468932
0.0436528
0.039795
0.0274847
0.0232018
0.0196538
0.0165891
0.0137065
0.0110218
0.00855454
0.00630187
0.00426108
0.00243116
0.000811212
-0.000599838
-0.00180316
-0.00280008
-0.00359218
-0.00418132
-0.00456965
-0.00475972
-0.00475441
-0.00455703
-0.00417129
-0.0036013
-0.00285163
-0.00192729
-0.000833728
0.000423143
0.00183696
0.00340089
0.00510763
0.00694941
0.00891798
0.0110046
0.0132001
0.0154949
0.0178788
0.0203412
0.0228712
0.0254573
0.0280878
0.0307505
0.0334328
0.036122
0.038805
0.0414686
0.0440993
0.0466836
0.0492079
0.0516588
0.0540229
0.0562869
0.0584379
0.0604632
0.0623509
0.0640891
0.0656669
0.067074
0.0683008
0.0693386
0.0701796
0.0708171
0.0712453
0.0714595
0.0714561
0.0712327
0.0707877
0.0701211
0.0692333
0.0681263
0.0668024
0.0652649
0.0635179
0.0615656
0.0594129
0.0570647
0.0545243
0.0517947
0.0489005
0.0458619
0.0423968
0.0382671
0.0284303
0.0238815
0.0201166
0.0168688
0.0138184
0.0109817
0.00837909
0.00600713
0.00386206
0.00194197
0.00024496
-0.00123105
-0.00248825
-0.003529
-0.00435584
-0.00497157
-0.00537923
-0.00558217
-0.00558404
-0.00538884
-0.00500088
-0.00442485
-0.0036658
-0.00272914
-0.00162069
-0.000346657
0.00108634
0.00267128
0.0044007
0.00626672
0.00826101
0.0103748
0.0125989
0.0149236
0.0173389
0.0198341
0.0223984
0.0250203
0.027688
0.0303894
0.033112
0.0358429
0.0385691
0.0412771
0.0439535
0.0465846
0.0491567
0.0516561
0.054069
0.0563821
0.058582
0.0606556
0.0625905
0.0643746
0.0659962
0.0674444
0.0687092
0.0697812
0.0706518
0.0713135
0.0717599
0.0719854
0.0719857
0.0717575
0.0712984
0.0706074
0.0696843
0.06853
0.0671463
0.0655356
0.0637012
0.0616469
0.0593769
0.0568958
0.0542065
0.0513119
0.0482379
0.0450063
0.0413167
0.0369161
0.0291301
0.0243182
0.0203381
0.0169083
0.0136905
0.0107019
0.00796379
0.00547204
0.00322207
0.00121116
-0.000563487
-0.00210487
-0.00341612
-0.00450053
-0.00536155
-0.00600285
-0.00642832
-0.00664209
-0.00664854
-0.00645232
-0.00605836
-0.00547189
-0.00469843
-0.00374384
-0.00261428
-0.00131629
0.000143265
0.00175714
0.0035177
0.00541693
0.00744641
0.00959729
0.0118603
0.0142258
0.0166835
0.0192231
0.0218334
0.0245032
0.0272205
0.0299732
0.0327487
0.0355342
0.0383165
0.041082
0.0438172
0.0465081
0.0491409
0.0517015
0.054176
0.0565506
0.0588114
0.0609453
0.0629389
0.0647797
0.0664556
0.067955
0.0692671
0.0703819
0.0712901
0.0719833
0.0724544
0.072697
0.0727059
0.0724768
0.0720068
0.0712939
0.070337
0.0691364
0.067693
0.0660086
0.064086
0.0619283
0.0595395
0.0569237
0.0540836
0.0510223
0.047767
0.0443412
0.0404263
0.0357545
0.0295686
0.0244953
0.0203014
0.0166903
0.0133056
0.0101653
0.00729181
0.00468022
0.00232527
0.000223492
-0.0016287
-0.00323516
-0.0045999
-0.00572707
-0.00662099
-0.00728616
-0.00772726
-0.00794918
-0.00795699
-0.00775599
-0.00735172
-0.00674993
-0.00595663
-0.0049781
-0.00382089
-0.00249183
-0.000998077
0.000652885
0.00245324
0.00439482
0.00646907
0.00866706
0.0109795
0.0133965
0.015908
0.0185034
0.0211716
0.0239013
0.0266806
0.0294972
0.0323385
0.0351915
0.0380429
0.040879
0.0436861
0.0464501
0.0491567
0.0517916
0.0543406
0.0567894
0.0591238
0.0613299
0.0633942
0.0653033
0.0670446
0.0686057
0.0699751
0.0711421
0.0720967
0.0728296
0.0733327
0.0735989
0.0736221
0.0733973
0.0729205
0.072189
0.071201
0.0699558
0.0684538
0.0666962
0.0646851
0.0624234
0.0599147
0.0571628
0.0541705
0.0509408
0.0475025
0.0438809
0.0397391
0.0347946
0.0297304
0.0243968
0.0199897
0.0161979
0.0126467
0.00935507
0.00634639
0.00361525
0.00115567
-0.00103648
-0.00296555
-0.00463617
-0.00605318
-0.00722156
-0.00814644
-0.0088331
-0.00928701
-0.00951377
-0.00951914
-0.00930907
-0.00888965
-0.00826719
-0.00744817
-0.0064393
-0.00524751
-0.00387997
-0.00234412
-0.000647664
0.00120136
0.0031946
0.00532337
0.00757863
0.00995093
0.0124305
0.015007
0.0176698
0.0204079
0.0232097
0.0260634
0.0289565
0.0318764
0.03481
0.0377437
0.0406638
0.0435561
0.0464065
0.0492003
0.0519229
0.0545596
0.0570957
0.0595166
0.0618078
0.0639551
0.0659446
0.0677629
0.069397
0.0708345
0.0720639
0.0730744
0.0738558
0.0743992
0.0746966
0.0747408
0.0745261
0.0740477
0.0733018
0.0722861
0.0709991
0.0694405
0.0676109
0.065512
0.0631462
0.0605169
0.057628
0.054482
0.0510821
0.047459
0.0436395
0.0392684
0.0340483
0.0296005
0.0240066
0.0193865
0.0154142
0.0116967
0.00825412
0.00511071
0.00226057
-0.000302904
-0.0025845
-0.00458925
-0.00632256
-0.00779003
-0.00899744
-0.0099507
-0.0106559
-0.0111192
-0.0113469
-0.0113454
-0.0111214
-0.0106815
-0.0100325
-0.00918147
-0.00813546
-0.00690181
-0.00548803
-0.00390185
-0.00215125
-0.000244469
0.00180996
0.00400318
0.00632601
0.00876892
0.011322
0.0139749
0.0167169
0.0195368
0.022423
0.0253636
0.0283461
0.0313576
0.0343849
0.0374142
0.0404317
0.0434229
0.0463732
0.0492679
0.0520918
0.0548299
0.0574669
0.0599876
0.0623771
0.0646204
0.066703
0.0686106
0.0703296
0.0718468
0.0731496
0.0742263
0.0750661
0.0756589
0.0759958
0.0760688
0.0758711
0.0753971
0.0746422
0.0736032
0.072278
0.0706655
0.0687659
0.0665804
0.064111
0.061361
0.0583343
0.0550333
0.0514614
0.0476512
0.0436312
0.0390277
0.0335279
0.0291633
0.0233085
0.018475
0.0143222
0.0104386
0.00684533
0.00356773
0.000599382
-0.00206694
-0.00443664
-0.00651543
-0.00830942
-0.00982499
-0.0110687
-0.0120471
-0.0127672
-0.0132358
-0.01346
-0.0134468
-0.0132035
-0.0127372
-0.0120554
-0.0111655
-0.0100752
-0.00879197
-0.00732385
-0.00567882
-0.00386512
-0.00189123
0.000234121
0.00250192
0.00490283
0.00742718
0.010065
0.0128057
0.0156387
0.0185525
0.0215356
0.0245757
0.0276604
0.0307767
0.033911
0.0370495
0.040178
0.0432819
0.0463462
0.0493557
0.052295
0.0551484
0.0579002
0.0605347
0.0630362
0.065389
0.067578
0.0695881
0.0714047
0.0730138
0.0744018
0.0755562
0.076465
0.0771174
0.0775032
0.0776136
0.0774408
0.0769782
0.0762205
0.0751636
0.0738045
0.0721418
0.0701748
0.0679045
0.0653326
0.0624622
0.0592971
0.0558399
0.0520942
0.0480944
0.0438708
0.0390307
0.033246
0.0284033
0.0222862
0.0172385
0.0129047
0.00885496
0.00511133
0.00170015
-0.00138544
-0.00415329
-0.0066094
-0.00876013
-0.0106123
-0.0121731
-0.0134497
-0.0144497
-0.0151805
-0.0156498
-0.0158654
-0.0158349
-0.0155663
-0.0150673
-0.0143459
-0.01341
-0.0122675
-0.0109267
-0.00939579
-0.00768303
-0.00579699
-0.00374637
-0.00154011
0.000812602
0.00330227
0.00591909
0.00865291
0.0114932
0.0144291
0.0174491
0.0205415
0.023694
0.026894
0.0301282
0.0333831
0.0366445
0.039898
0.0431286
0.046321
0.0494597
0.0525287
0.0555119
0.058393
0.0611557
0.0637835
0.0662602
0.0685696
0.070696
0.0726237
0.0743377
0.0758238
0.0770681
0.0780576
0.0787805
0.0792257
0.0793831
0.0792441
0.0788011
0.0780477
0.0769791
0.0755916
0.0738829
0.0718521
0.0694995
0.0668266
0.0638363
0.0605326
0.056918
0.0529964
0.0488041
0.0443733
0.039292
0.0332158
0.0273044
0.0209229
0.0156597
0.0111442
0.00692811
0.00303431
-0.000509757
-0.00371146
-0.00657926
-0.00911974
-0.0113399
-0.0132474
-0.01485
-0.0161557
-0.0171728
-0.0179096
-0.0183744
-0.0185758
-0.018522
-0.0182215
-0.0176829
-0.0169145
-0.0159248
-0.0147222
-0.0133153
-0.0117126
-0.00992295
-0.00795498
-0.00581772
-0.0035203
-0.00107211
0.00151721
0.00423771
0.00707909
0.0100307
0.0130816
0.0162202
0.0194346
0.0227125
0.0260409
0.0294066
0.0327957
0.0361939
0.0395865
0.0429582
0.0462933
0.0495758
0.0527893
0.0559172
0.0589426
0.0618485
0.0646177
0.0672331
0.0696778
0.0719349
0.073988
0.0758212
0.0774189
0.0787663
0.0798494
0.0806549
0.0811709
0.0813861
0.0812909
0.0808765
0.0801357
0.0790626
0.0776529
0.0759035
0.073813
0.0713812
0.0686094
0.0655002
0.0620577
0.0582846
0.0541849
0.049797
0.0451549
0.0398266
0.0334514
0.0258499
0.0192012
0.0137208
0.00902273
0.00463982
0.000596012
-0.00308023
-0.00639677
-0.00936269
-0.0119852
-0.014272
-0.0162313
-0.0178717
-0.0192022
-0.0202316
-0.020969
-0.0214235
-0.0216044
-0.0215206
-0.0211813
-0.0205955
-0.0197722
-0.0187205
-0.0174492
-0.0159672
-0.0142836
-0.0124074
-0.0103476
-0.00811344
-0.00571434
-0.00315984
-0.000459753
0.00237582
0.00533648
0.00841144
0.0115896
0.0148592
0.0182085
0.0216248
0.0250951
0.0286059
0.0321432
0.0356924
0.0392384
0.0427658
0.0462585
0.0496999
0.0530733
0.0563613
0.0595465
0.0626111
0.0655372
0.068307
0.0709024
0.0733058
0.0754997
0.077467
0.079191
0.0806557
0.0818461
0.0827476
0.0833469
0.0836318
0.0835913
0.0832157
0.0824968
0.0814275
0.0800028
0.0782189
0.0760736
0.0735663
0.0706981
0.0674715
0.0638904
0.0599577
0.0556775
0.0510905
0.0462326
0.0406509
0.0339679
0.0240227
0.0171034
0.0114035
0.00652153
0.00197125
-0.00222247
-0.00603011
-0.00946006
-0.012522
-0.0152239
-0.0175739
-0.0195813
-0.0212552
-0.0226054
-0.0236416
-0.0243737
-0.0248115
-0.024965
-0.0248439
-0.0244581
-0.0238171
-0.0229306
-0.0218081
-0.0204589
-0.0188925
-0.0171183
-0.0151455
-0.0129835
-0.010642
-0.00813036
-0.00545846
-0.00263625
0.000326027
0.00341784
0.00662829
0.00994611
0.0133596
0.0168567
0.0204246
0.0240503
0.0277201
0.0314197
0.0351343
0.0388485
0.0425466
0.046212
0.0498278
0.0533767
0.0568407
0.0602018
0.0634414
0.0665408
0.0694813
0.0722439
0.0748099
0.0771607
0.079278
0.081144
0.0827415
0.084054
0.0850659
0.0857624
0.08613
0.0861566
0.0858311
0.0851443
0.0840883
0.0826568
0.0808452
0.0786509
0.0760727
0.0731112
0.0697688
0.0660496
0.0619562
0.0574933
0.0527034
0.0476245
0.0417823
0.0347818
0.0218046
0.0146106
0.00868855
0.00362122
-0.00109716
-0.00544076
-0.00937899
-0.0129208
-0.0160765
-0.0188546
-0.0212643
-0.0233153
-0.0250178
-0.0263822
-0.0274192
-0.0281393
-0.0285534
-0.028672
-0.0285057
-0.028065
-0.0273602
-0.0264014
-0.0251987
-0.0237621
-0.0221014
-0.0202263
-0.0181466
-0.0158719
-0.013412
-0.0107767
-0.007976
-0.00502006
-0.00191922
0.00131583
0.00467412
0.00814427
0.0117145
0.0153725
0.0191055
0.0229004
0.0267431
0.0306193
0.034514
0.0384114
0.0422954
0.0461491
0.0499552
0.0536957
0.0573522
0.0609058
0.0643372
0.067627
0.0707553
0.0737023
0.0764482
0.078973
0.0812575
0.0832824
0.0850292
0.08648
0.0876177
0.0884264
0.0888911
0.0889983
0.0887356
0.0880925
0.0870601
0.085631
0.0837999
0.0815632
0.0789193
0.0758682
0.0724123
0.0685555
0.0643007
0.0596525
0.0546557
0.0493503
0.0432397
0.0359109
0.0191767
0.0117034
0.0055561
0.000301591
-0.00458582
-0.00907931
-0.0131472
-0.0167991
-0.020046
-0.0228971
-0.0253622
-0.027452
-0.0291775
-0.0305501
-0.0315811
-0.0322821
-0.0326646
-0.0327402
-0.0325201
-0.0320155
-0.0312375
-0.0301968
-0.0289041
-0.0273699
-0.0256044
-0.0236178
-0.0214202
-0.0190217
-0.0164321
-0.0136617
-0.0107206
-0.007619
-0.00436752
-0.000976909
0.00254175
0.006177
0.00991694
0.0137492
0.017661
0.0216388
0.0256688
0.0297361
0.0338257
0.0379215
0.042007
0.046065
0.0500776
0.0540264
0.0578922
0.0616556
0.0652965
0.0687944
0.0721285
0.0752781
0.078222
0.0809392
0.0834089
0.0856107
0.0875245
0.089131
0.0904116
0.0913489
0.0919263
0.0921288
0.0919429
0.0913564
0.0903593
0.0889431
0.0871014
0.0848299
0.0821262
0.0789901
0.0754234
0.0714301
0.0670129
0.0621769
0.0569689
0.0514311
0.0450436
0.0373745
0.0161192
0.00836131
0.0019852
-0.00345857
-0.00851607
-0.0131595
-0.0173562
-0.0211162
-0.0244514
-0.0273717
-0.0298877
-0.0320109
-0.0337534
-0.0351272
-0.0361448
-0.0368187
-0.0371612
-0.0371848
-0.0369015
-0.0363234
-0.0354622
-0.0343293
-0.032936
-0.0312933
-0.029412
-0.0273028
-0.024976
-0.022442
-0.0197112
-0.0167938
-0.0137002
-0.0104409
-0.00702643
-0.00346773
0.000224035
0.00403733
0.00796022
0.0119803
0.0160845
0.0202594
0.0244909
0.0287641
0.0330637
0.0373734
0.0416763
0.0459548
0.0501907
0.0543648
0.0584575
0.0624485
0.066317
0.0700416
0.0736004
0.0769715
0.0801326
0.0830615
0.0857358
0.0881337
0.0902336
0.0920146
0.0934564
0.09454
0.0952472
0.0955615
0.0954675
0.0949519
0.0940031
0.0926115
0.0907694
0.0884717
0.0857152
0.0824991
0.0788249
0.0746965
0.0701165
0.0650901
0.0596665
0.0538898
0.047216
0.0391939
0.012611
0.00456266
-0.00204618
-0.00768155
-0.0129103
-0.0177038
-0.0220282
-0.0258942
-0.0293145
-0.0322998
-0.0348616
-0.0370123
-0.0387648
-0.0401325
-0.0411285
-0.0417665
-0.0420598
-0.0420216
-0.041665
-0.0410028
-0.0400475
-0.0388114
-0.0373062
-0.0355436
-0.0335349
-0.0312912
-0.0288234
-0.0261421
-0.0232579
-0.0201814
-0.016923
-0.0134934
-0.00990335
-0.00616381
-0.00228602
0.00171845
0.00583762
0.010059
0.0143696
0.0187558
0.0232034
0.0276975
0.0322223
0.0367616
0.041298
0.0458137
0.0502899
0.0547069
0.0590445
0.0632816
0.0673966
0.0713671
0.0751703
0.078783
0.0821816
0.0853425
0.088242
0.0908566
0.093163
0.0951386
0.0967615
0.0980107
0.0988664
0.0993102
0.0993251
0.0988961
0.0980101
0.096656
0.0948251
0.0925109
0.0897096
0.0864194
0.0826417
0.07838
0.0736368
0.0684175
0.0627736
0.0567513
0.0497814
0.0413923
0.00863015
0.000284738
-0.00656123
-0.0123908
-0.0177923
-0.0227359
-0.0271868
-0.0311564
-0.0346583
-0.0377039
-0.0403057
-0.0424772
-0.0442324
-0.0455855
-0.046551
-0.0471434
-0.0473772
-0.0472666
-0.0468257
-0.0460681
-0.0450071
-0.0436558
-0.0420267
-0.040132
-0.0379837
-0.0355932
-0.0329719
-0.0301307
-0.0270806
-0.0238323
-0.0203965
-0.0167839
-0.0130054
-0.00907208
-0.00499514
-0.000786207
0.00354273
0.0079792
0.0125102
0.017122
0.0218004
0.0265303
0.0312959
0.0360807
0.0408671
0.0456369
0.0503708
0.0550487
0.0596497
0.064152
0.068533
0.0727696
0.0768377
0.080713
0.0843704
0.087785
0.0909315
0.0937845
0.0963193
0.0985113
0.100337
0.101772
0.102797
0.10339
0.103532
0.103207
0.1024
0.101098
0.099291
0.0969714
0.0941341
0.0907769
0.0869004
0.0825077
0.0776014
0.0721868
0.0663177
0.0600427
0.052766
0.0439949
0.00415321
-0.00449651
-0.0115845
-0.0176112
-0.0231869
-0.0282807
-0.0328568
-0.0369273
-0.0405067
-0.0436074
-0.046243
-0.0484279
-0.0501773
-0.0515066
-0.0524316
-0.0529679
-0.0531311
-0.0529365
-0.0523991
-0.0515337
-0.0503545
-0.0488753
-0.0471094
-0.0450697
-0.0427687
-0.0402184
-0.0374305
-0.0344164
-0.0311874
-0.0277542
-0.024128
-0.0203194
-0.0163394
-0.012199
-0.00790967
-0.00348283
0.0010695
0.00573488
0.0105003
0.0153522
0.0202761
0.0252571
0.0302792
0.0353255
0.0403786
0.0454196
0.050429
0.0553862
0.0602696
0.0650567
0.0697241
0.0742475
0.078602
0.0827618
0.0867006
0.0903917
0.0938082
0.0969231
0.0997097
0.102141
0.104192
0.105837
0.107053
0.107816
0.108106
0.107904
0.107194
0.10596
0.104191
0.101879
0.0990158
0.0955995
0.0916297
0.0871091
0.0820401
0.0764278
0.0703287
0.0637935
0.0561987
0.0470296
-0.000844515
-0.00980658
-0.017142
-0.0233691
-0.0291206
-0.0343647
-0.0390645
-0.0432329
-0.0468853
-0.0500353
-0.0526974
-0.0548875
-0.0566218
-0.0579172
-0.0587906
-0.059259
-0.0593392
-0.0590478
-0.058401
-0.0574144
-0.0561033
-0.0544825
-0.0525659
-0.0503674
-0.0478999
-0.045176
-0.0422079
-0.0390073
-0.0355858
-0.0319544
-0.0281242
-0.0241062
-0.0199113
-0.0155506
-0.0110354
-0.00637706
-0.00158762
0.0033206
0.00833467
0.013441
0.0186254
0.0238727
0.0291669
0.0344911
0.0398276
0.0451573
0.0504602
0.0557155
0.0609008
0.0659929
0.0709676
0.0757996
0.0804627
0.0849299
0.0891736
0.0931653
0.0968764
0.100278
0.103341
0.106038
0.108339
0.110218
0.111648
0.112605
0.113065
0.113008
0.112414
0.111266
0.109552
0.10726
0.104384
0.100917
0.0968607
0.092216
0.0869851
0.0811732
0.074839
0.0680358
0.060111
0.0505268
-0.00638925
-0.0156725
-0.0232614
-0.0296923
-0.0356215
-0.041016
-0.0458377
-0.0501005
-0.0538209