/*--------------------------------*- C++ -*----------------------------------*\
  =========                 |
  \\      /  F ield         | OpenFOAM: The Open Source CFD Toolbox
   \\    /   O peration     | Website:  https://openfoam.org
    \\  /    A nd           | Version:  7
     \\/     M anipulation  |
\*---------------------------------------------------------------------------*/
FoamFile
{
    version     2.0;
    format      ascii;
    class       surfaceScalarField;
    location    "0.45";
    object      phi;
}
// * * * * * * * * * * * * * * * * * * * * * * * * * * * * * * * * * * * * * //

dimensions      [0 3 -1 0 0 0 0];

internalField   nonuniform List<scalar> 
12640
(
1.89126e-10
-1.92015e-10
5.55744e-10
-3.66621e-10
8.83214e-10
-3.2747e-10
1.04635e-09
-1.63141e-10
9.83027e-10
6.33205e-11
6.66147e-10
3.16873e-10
8.88398e-11
5.77302e-10
-7.43793e-10
8.32628e-10
-1.81955e-09
1.07575e-09
-3.12196e-09
1.30241e-09
-4.63203e-09
1.51006e-09
-6.32929e-09
1.69725e-09
-8.19249e-09
1.8632e-09
-1.02001e-08
2.00761e-09
-1.23306e-08
2.1305e-09
-1.45627e-08
2.23211e-09
-1.68756e-08
2.31286e-09
-1.92488e-08
2.37326e-09
-2.16628e-08
2.41393e-09
-2.40983e-08
2.43556e-09
-2.65372e-08
2.43887e-09
-2.89618e-08
2.42462e-09
-3.13554e-08
2.3936e-09
-3.3702e-08
2.34661e-09
-3.59865e-08
2.28446e-09
-3.81945e-08
2.20799e-09
-4.03125e-08
2.11802e-09
-4.23279e-08
2.01539e-09
-4.42288e-08
1.90095e-09
-4.60043e-08
1.77552e-09
-4.76443e-08
1.63998e-09
-4.91395e-08
1.49516e-09
-5.04814e-08
1.34194e-09
-5.16626e-08
1.18118e-09
-5.26763e-08
1.01375e-09
-5.35169e-08
8.40546e-10
-5.41793e-08
6.62472e-10
-5.46598e-08
4.8044e-10
-5.49552e-08
2.95382e-10
-5.50634e-08
1.08244e-10
-5.49834e-08
-8.00095e-11
-5.4715e-08
-2.68395e-10
-5.42591e-08
-4.55911e-10
-5.36176e-08
-6.41539e-10
-5.27933e-08
-8.24245e-10
-5.17903e-08
-1.00298e-09
-5.06137e-08
-1.17667e-09
-4.92694e-08
-1.34424e-09
-4.77648e-08
-1.5046e-09
-4.61082e-08
-1.65667e-09
-4.43088e-08
-1.79934e-09
-4.23773e-08
-1.93153e-09
-4.03251e-08
-2.05215e-09
-3.8165e-08
-2.16014e-09
-3.59105e-08
-2.25445e-09
-3.35765e-08
-2.33405e-09
-3.11785e-08
-2.39796e-09
-2.87333e-08
-2.44522e-09
-2.62583e-08
-2.47495e-09
-2.3772e-08
-2.48631e-09
-2.12935e-08
-2.47851e-09
-1.88427e-08
-2.45087e-09
-1.64399e-08
-2.40279e-09
-1.41061e-08
-2.33376e-09
-1.18627e-08
-2.24341e-09
-9.73119e-09
-2.1315e-09
-7.73323e-09
-1.99796e-09
-5.8903e-09
-1.84294e-09
-4.22344e-09
-1.66685e-09
-2.75297e-09
-1.47048e-09
-1.49789e-09
-1.25507e-09
-4.75257e-10
-1.02262e-09
3.00954e-10
-7.76199e-10
8.2153e-10
-5.20574e-10
1.08484e-09
-2.63328e-10
1.10161e-09
-1.68094e-11
9.0292e-10
1.9866e-10
5.54603e-10
3.48356e-10
1.83934e-10
3.7077e-10
1.84013e-10
3.6554e-10
-5.57556e-10
8.86542e-10
-8.87634e-10
1.21773e-09
-6.58667e-10
1.13598e-09
-8.13956e-11
5.03595e-10
6.95694e-10
-7.53265e-10
1.57372e-09
-2.66379e-09
2.48782e-09
-5.22691e-09
3.39574e-09
-8.4212e-09
4.27003e-09
-1.22116e-08
5.09281e-09
-1.6554e-08
5.85249e-09
-2.13985e-08
6.54173e-09
-2.66914e-08
7.1561e-09
-3.2377e-08
7.69316e-09
-3.83985e-08
8.15197e-09
-4.4699e-08
8.53262e-09
-5.12221e-08
8.83598e-09
-5.79123e-08
9.0635e-09
-6.47155e-08
9.21707e-09
-7.15788e-08
9.2989e-09
-7.84514e-08
9.31147e-09
-8.52842e-08
9.25744e-09
-9.20302e-08
9.13962e-09
-9.86445e-08
8.96091e-09
-1.05084e-07
8.72433e-09
-1.11309e-07
8.43293e-09
-1.17281e-07
8.08984e-09
-1.22964e-07
7.6982e-09
-1.28324e-07
7.26122e-09
-1.33331e-07
6.7821e-09
-1.37955e-07
6.26411e-09
-1.4217e-07
5.71053e-09
-1.45953e-07
5.12466e-09
-1.49282e-07
4.50986e-09
-1.52137e-07
3.86953e-09
-1.54504e-07
3.20709e-09
-1.56368e-07
2.52604e-09
-1.57717e-07
1.82991e-09
-1.58544e-07
1.1223e-09
-1.58843e-07
4.06875e-10
-1.5861e-07
-3.12647e-10
-1.57846e-07
-1.03248e-09
-1.56553e-07
-1.74876e-09
-1.54737e-07
-2.45759e-09
-1.52406e-07
-3.15498e-09
-1.49572e-07
-3.83691e-09
-1.4625e-07
-4.4993e-09
-1.42456e-07
-5.13805e-09
-1.38211e-07
-5.74901e-09
-1.3354e-07
-6.32803e-09
-1.28468e-07
-6.87098e-09
-1.23026e-07
-7.37373e-09
-1.17246e-07
-7.8322e-09
-1.11164e-07
-8.24238e-09
-1.04818e-07
-8.60035e-09
-9.82497e-08
-8.90229e-09
-9.15031e-08
-9.14455e-09
-8.46247e-08
-9.32365e-09
-7.76633e-08
-9.4363e-09
-7.06701e-08
-9.4795e-09
-6.36982e-08
-9.45049e-09
-5.68021e-08
-9.34688e-09
-5.00383e-08
-9.16666e-09
-4.34638e-08
-8.90826e-09
-3.71365e-08
-8.57065e-09
-3.11146e-08
-8.15343e-09
-2.54556e-08
-7.65695e-09
-2.0216e-08
-7.08252e-09
-1.54502e-08
-6.43261e-09
-1.12094e-08
-5.71129e-09
-7.53976e-09
-4.9247e-09
-4.48045e-09
-4.08194e-09
-2.06038e-09
-3.19627e-09
-2.93743e-10
-2.28718e-09
8.26452e-10
-1.38347e-09
1.33786e-09
-5.28197e-10
1.32252e-09
2.13937e-10
9.24769e-10
7.45966e-10
3.70621e-10
9.24771e-10
5.54718e-10
3.30197e-10
-8.87753e-10
6.66393e-10
-1.22384e-09
6.13685e-10
-6.05969e-10
-8.9031e-11
6.21311e-10
-1.61267e-09
2.21933e-09
-4.05651e-09
4.01755e-09
-7.46496e-09
5.89626e-09
-1.1842e-08
7.7728e-09
-1.71623e-08
9.59033e-09
-2.33795e-08
1.13099e-08
-3.04321e-08
1.29051e-08
-3.82487e-08
1.43583e-08
-4.67507e-08
1.56581e-08
-5.58552e-08
1.67976e-08
-6.54767e-08
1.77735e-08
-7.55286e-08
1.85846e-08
-8.59245e-08
1.92319e-08
-9.65786e-08
1.97176e-08
-1.07407e-07
2.00452e-08
-1.18327e-07
2.02188e-08
-1.29258e-07
2.02434e-08
-1.40125e-07
2.01242e-08
-1.50853e-07
1.98672e-08
-1.6137e-07
1.94783e-08
-1.7161e-07
1.89639e-08
-1.81507e-07
1.83304e-08
-1.91002e-07
1.75846e-08
-2.00037e-07
1.67331e-08
-2.08559e-07
1.5783e-08
-2.16518e-07
1.47411e-08
-2.23868e-07
1.36145e-08
-2.30568e-07
1.24104e-08
-2.36579e-07
1.11359e-08
-2.41868e-07
9.79851e-09
-2.46404e-07
8.40553e-09
-2.50161e-07
6.96449e-09
-2.53118e-07
5.48304e-09
-2.55257e-07
3.96892e-09
-2.56565e-07
2.43001e-09
-2.57032e-07
8.74317e-10
-2.56655e-07
-6.9003e-10
-2.55433e-07
-2.25475e-09
-2.5337e-07
-3.81144e-09
-2.50476e-07
-5.35157e-09
-2.46764e-07
-6.86647e-09
-2.42254e-07
-8.3474e-09
-2.36968e-07
-9.78551e-09
-2.30934e-07
-1.11719e-08
-2.24185e-07
-1.24976e-08
-2.1676e-07
-1.37536e-08
-2.087e-07
-1.4931e-08
-2.00053e-07
-1.6021e-08
-1.9087e-07
-1.70147e-08
-1.81209e-07
-1.79036e-08
-1.7113e-07
-1.86792e-08
-1.60699e-07
-1.93336e-08
-1.49984e-07
-1.98589e-08
-1.3906e-07
-2.02477e-08
-1.28003e-07
-2.04933e-08
-1.16894e-07
-2.05893e-08
-1.05814e-07
-2.05301e-08
-9.48498e-08
-2.0311e-08
-8.40884e-08
-1.9928e-08
-7.36184e-08
-1.93782e-08
-6.35289e-08
-1.86602e-08
-5.39087e-08
-1.77736e-08
-4.48454e-08
-1.67203e-08
-3.64239e-08
-1.5504e-08
-2.87252e-08
-1.41313e-08
-2.1824e-08
-1.26125e-08
-1.57865e-08
-1.09622e-08
-1.06668e-08
-9.20166e-09
-6.50253e-09
-7.36051e-09
-3.30906e-09
-5.48067e-09
-1.07122e-09
-3.62128e-09
2.66905e-10
-1.86626e-09
8.1553e-10
-3.34635e-10
7.54672e-10
8.06793e-10
3.51027e-10
1.32829e-09
9.0577e-10
1.71842e-10
-1.0596e-09
1.04802e-10
-1.15681e-09
-5.87894e-10
8.67182e-11
-2.17025e-09
2.20366e-09
-4.81944e-09
4.86851e-09
-8.64184e-09
7.83995e-09
-1.36869e-08
1.09413e-08
-1.99595e-08
1.40454e-08
-2.74303e-08
1.70611e-08
-3.60441e-08
1.99238e-08
-4.57267e-08
2.25877e-08
-5.63897e-08
2.50213e-08
-6.79349e-08
2.72033e-08
-8.02575e-08
2.91202e-08
-9.32485e-08
3.07644e-08
-1.06796e-07
3.21325e-08
-1.20789e-07
3.32247e-08
-1.35115e-07
3.40438e-08
-1.49665e-07
3.45945e-08
-1.64329e-07
3.48832e-08
-1.79003e-07
3.49176e-08
-1.93586e-07
3.47064e-08
-2.07977e-07
3.4259e-08
-2.22085e-07
3.35854e-08
-2.35817e-07
3.26962e-08
-2.49089e-07
3.16023e-08
-2.61819e-07
3.0315e-08
-2.73932e-07
2.88459e-08
-2.85356e-07
2.72066e-08
-2.96024e-07
2.54091e-08
-3.05875e-07
2.34657e-08
-3.14853e-07
2.13885e-08
-3.22907e-07
1.919e-08
-3.29992e-07
1.6883e-08
-3.36066e-07
1.44803e-08
-3.41097e-07
1.19948e-08
-3.45053e-07
9.43978e-09
-3.47913e-07
6.82867e-09
-3.49658e-07
4.17508e-09
-3.50277e-07
1.49288e-09
-3.49763e-07
-1.20386e-09
-3.48117e-07
-3.90083e-09
-3.45345e-07
-6.58352e-09
-3.41459e-07
-9.23721e-09
-3.36479e-07
-1.1847e-08
-3.30428e-07
-1.43977e-08
-3.2334e-07
-1.68743e-08
-3.1525e-07
-1.92613e-08
-3.06204e-07
-2.15434e-08
-2.96253e-07
-2.37052e-08
-2.85452e-07
-2.57316e-08
-2.73866e-07
-2.76072e-08
-2.61564e-07
-2.93172e-08
-2.4862e-07
-3.0847e-08
-2.35117e-07
-3.21823e-08
-2.21141e-07
-3.33094e-08
-2.06785e-07
-3.42154e-08
-1.92145e-07
-3.48878e-08
-1.77323e-07
-3.53152e-08
-1.62425e-07
-3.54873e-08
-1.4756e-07
-3.5395e-08
-1.3284e-07
-3.50306e-08
-1.1838e-07
-3.43879e-08
-1.04295e-07
-3.3463e-08
-9.07017e-08
-3.22539e-08
-7.77139e-08
-3.07614e-08
-6.54447e-08
-2.89895e-08
-5.40024e-08
-2.69463e-08
-4.34893e-08
-2.46444e-08
-3.39991e-08
-2.21027e-08
-2.56133e-08
-1.9348e-08
-1.83975e-08
-1.64174e-08
-1.23964e-08
-1.33616e-08
-7.62713e-09
-1.025e-08
-4.07143e-09
-7.17702e-09
-1.66607e-09
-4.27159e-09
-2.91254e-10
-1.70939e-09
2.42201e-10
2.73382e-10
2.07933e-10
1.36251e-09
1.11368e-09
-4.74055e-11
-1.01219e-09
-6.54302e-10
-5.49915e-10
-2.15853e-09
1.59094e-09
-4.80055e-09
4.84567e-09
-8.74453e-09
8.81249e-09
-1.40899e-08
1.31853e-08
-2.08815e-08
1.77329e-08
-2.91197e-08
2.22836e-08
-3.87689e-08
2.67103e-08
-4.97652e-08
3.09201e-08
-6.2023e-08
3.48454e-08
-7.54399e-08
3.84382e-08
-8.99015e-08
4.16649e-08
-1.05285e-07
4.45035e-08
-1.21461e-07
4.69405e-08
-1.38298e-07
4.89693e-08
-1.55661e-07
5.05882e-08
-1.73418e-07
5.18001e-08
-1.91434e-07
5.2611e-08
-2.0958e-07
5.30293e-08
-2.27728e-07
5.30657e-08
-2.45754e-07
5.27325e-08
-2.63539e-07
5.20433e-08
-2.80966e-07
5.10128e-08
-2.97926e-07
4.96565e-08
-3.14315e-07
4.79907e-08
-3.30032e-07
4.6032e-08
-3.44983e-07
4.37978e-08
-3.59083e-07
4.13058e-08
-3.72248e-07
3.8574e-08
-3.84403e-07
3.56207e-08
-3.95479e-07
3.24646e-08
-4.05413e-07
2.91247e-08
-4.1415e-07
2.562e-08
-4.2164e-07
2.19703e-08
-4.27841e-07
1.81952e-08
-4.32716e-07
1.43148e-08
-4.36237e-07
1.03497e-08
-4.38382e-07
6.3205e-09
-4.39138e-07
2.24831e-09
-4.38496e-07
-1.84545e-09
-4.36458e-07
-5.93905e-09
-4.33031e-07
-1.00104e-08
-4.28231e-07
-1.40373e-08
-4.22081e-07
-1.79969e-08
-4.14612e-07
-2.18665e-08
-4.05863e-07
-2.56231e-08
-3.95881e-07
-2.92435e-08
-3.8472e-07
-3.27046e-08
-3.72442e-07
-3.59831e-08
-3.59118e-07
-3.9056e-08
-3.44824e-07
-4.19006e-08
-3.29647e-07
-4.44945e-08
-3.13678e-07
-4.68157e-08
-2.97017e-07
-4.88431e-08
-2.79771e-07
-5.05562e-08
-2.6205e-07
-5.19356e-08
-2.43975e-07
-5.29631e-08
-2.25668e-07
-5.3622e-08
-2.07258e-07
-5.38972e-08
-1.88878e-07
-5.37755e-08
-1.70662e-07
-5.3246e-08
-1.5275e-07
-5.23004e-08
-1.35279e-07
-5.09336e-08
-1.18389e-07
-4.91438e-08
-1.02217e-07
-4.69334e-08
-8.68969e-08
-4.43101e-08
-7.25561e-08
-4.12871e-08
-5.93153e-08
-3.78852e-08
-4.72836e-08
-3.41343e-08
-3.6556e-08
-3.00757e-08
-2.72081e-08
-2.57652e-08
-1.9292e-08
-2.12777e-08
-1.28295e-08
-1.67125e-08
-7.80527e-09
-1.22013e-08
-4.15851e-09
-7.91839e-09
-1.77386e-09
-4.09402e-09
-4.71848e-10
-1.02858e-09
2.20033e-12
8.88479e-10
1.11585e-09
-2.94278e-10
-7.1792e-10
-1.51844e-09
6.74246e-10
-3.94119e-09
4.01369e-09
-7.76169e-09
8.66616e-09
-1.31172e-08
1.4168e-08
-2.00891e-08
2.01572e-08
-2.87095e-08
2.63534e-08
-3.89686e-08
3.25427e-08
-5.08212e-08
3.85629e-08
-6.41933e-08
4.42922e-08
-7.89879e-08
4.964e-08
-9.50899e-08
5.45402e-08
-1.12371e-07
5.89456e-08
-1.30691e-07
6.28241e-08
-1.49906e-07
6.61551e-08
-1.69864e-07
6.89275e-08
-1.90413e-07
7.11375e-08
-2.114e-07
7.27873e-08
-2.32673e-07
7.38835e-08
-2.54081e-07
7.4437e-08
-2.75476e-07
7.44612e-08
-2.96716e-07
7.39725e-08
-3.17662e-07
7.29889e-08
-3.38179e-07
7.15303e-08
-3.5814e-07
6.96177e-08
-3.77423e-07
6.72734e-08
-3.95912e-07
6.45204e-08
-4.13496e-07
6.13827e-08
-4.30075e-07
5.78847e-08
-4.45553e-07
5.40515e-08
-4.59841e-07
4.99087e-08
-4.72859e-07
4.54823e-08
-4.84533e-07
4.07988e-08
-4.94798e-07
3.5885e-08
-5.03596e-07
3.07684e-08
-5.10877e-07
2.54767e-08
-5.16601e-07
2.00381e-08
-5.20732e-07
1.44813e-08
-5.23247e-07
8.8352e-09
-5.24128e-07
3.12954e-09
-5.23368e-07
-2.60573e-09
-5.20967e-07
-8.34018e-09
-5.16934e-07
-1.40429e-08
-5.11289e-07
-1.96827e-08
-5.04058e-07
-2.52279e-08
-4.95278e-07
-3.06466e-08
-4.84994e-07
-3.59067e-08
-4.73262e-07
-4.09759e-08
-4.60144e-07
-4.5822e-08
-4.45715e-07
-5.04126e-08
-4.30055e-07
-5.47159e-08
-4.13255e-07
-5.87003e-08
-3.95415e-07
-6.23346e-08
-3.76642e-07
-6.55887e-08
-3.57052e-07
-6.84333e-08
-3.36768e-07
-7.08402e-08
-3.15921e-07
-7.27829e-08
-2.94647e-07
-7.42364e-08
-2.73091e-07
-7.51781e-08
-2.51401e-07
-7.55876e-08
-2.29729e-07
-7.54473e-08
-2.08232e-07
-7.4743e-08
-1.87068e-07
-7.34642e-08
-1.66397e-07
-7.16047e-08
-1.46377e-07
-6.91634e-08
-1.27165e-07
-6.61451e-08
-1.08914e-07
-6.25618e-08
-9.17673e-08
-5.84335e-08
-7.58621e-08
-5.37904e-08
-6.13213e-08
-4.86751e-08
-4.82519e-08
-4.31451e-08
-3.67403e-08
-3.72768e-08
-2.68476e-08
-3.11704e-08
-1.86039e-08
-2.49562e-08
-1.20025e-08
-1.88027e-08
-6.99326e-09
-1.29277e-08
-3.47626e-09
-7.61105e-09
-1.29545e-09
-3.20936e-09
-2.32835e-10
-1.7411e-10
8.83005e-10
-5.50625e-10
-1.673e-10
-2.42998e-09
2.5536e-09
-5.83122e-09
7.41492e-09
-1.09023e-08
1.37372e-08
-1.77441e-08
2.10098e-08
-2.64119e-08
2.88249e-08
-3.69183e-08
3.68598e-08
-4.92381e-08
4.48624e-08
-6.33128e-08
5.26377e-08
-7.90564e-08
6.00358e-08
-9.63596e-08
6.69432e-08
-1.15094e-07
7.32751e-08
-1.35119e-07
7.897e-08
-1.5628e-07
8.39848e-08
-1.78416e-07
8.8291e-08
-2.01361e-07
9.18724e-08
-2.24945e-07
9.47222e-08
-2.48999e-07
9.68415e-08
-2.73354e-07
9.82376e-08
-2.9784e-07
9.89231e-08
-3.22293e-07
9.89148e-08
-3.46554e-07
9.82329e-08
-3.70465e-07
9.69002e-08
-3.93877e-07
9.49423e-08
-4.16645e-07
9.23862e-08
-4.38633e-07
8.92608e-08
-4.59709e-07
8.55961e-08
-4.79749e-07
8.14234e-08
-4.98639e-07
7.67747e-08
-5.16271e-07
7.16831e-08
-5.32545e-07
6.61822e-08
-5.47369e-07
6.03065e-08
-5.60661e-07
5.40908e-08
-5.72346e-07
4.75708e-08
-5.82361e-07
4.07827e-08
-5.90647e-07
3.37633e-08
-5.97159e-07
2.65499e-08
-6.01858e-07
1.91804e-08
-6.04717e-07
1.16936e-08
-6.05715e-07
4.12845e-09
-6.04846e-07
-3.47524e-09
-6.02109e-07
-1.10772e-08
-5.97515e-07
-1.86365e-08
-5.91086e-07
-2.61118e-08
-5.82853e-07
-3.34615e-08
-5.72856e-07
-4.06432e-08
-5.61148e-07
-4.76147e-08
-5.47791e-07
-5.43334e-08
-5.32856e-07
-6.07567e-08
-5.16426e-07
-6.68424e-08
-4.98594e-07
-7.25482e-08
-4.79461e-07
-7.78329e-08
-4.5914e-07
-8.26556e-08
-4.37752e-07
-8.69768e-08
-4.15427e-07
-9.07582e-08
-3.92304e-07
-9.39633e-08
-3.6853e-07
-9.65573e-08
-3.44258e-07
-9.85083e-08
-3.19649e-07
-9.97867e-08
-2.9487e-07
-1.00367e-07
-2.70091e-07
-1.00226e-07
-2.45488e-07
-9.93466e-08
-2.21236e-07
-9.77161e-08
-1.97513e-07
-9.53273e-08
-1.74496e-07
-9.21804e-08
-1.52358e-07
-8.82829e-08
-1.31268e-07
-8.36519e-08
-1.11387e-07
-7.83152e-08
-9.28637e-08
-7.23134e-08
-7.58361e-08
-6.57027e-08
-6.04233e-08
-5.85579e-08
-4.67235e-08
-5.09767e-08
-3.48089e-08
-4.3085e-08
-2.47217e-08
-3.50433e-08
-1.64691e-08
-2.70553e-08
-1.00185e-08
-1.93783e-08
-5.29334e-09
-1.23362e-08
-2.17052e-09
-6.3322e-09
-4.78754e-10
-1.86586e-09
4.04251e-10
-8.06575e-10
6.39273e-10
-3.35414e-09
5.10116e-09
-7.76136e-09
1.18221e-08
-1.41208e-08
2.00967e-08
-2.24917e-08
2.93806e-08
-3.28971e-08
3.92304e-08
-4.53251e-08
4.92878e-08
-5.97307e-08
5.9268e-08
-7.6039e-08
6.89459e-08
-9.4149e-08
7.81459e-08
-1.13938e-07
8.67321e-08
-1.35265e-07
9.46019e-08
-1.57974e-07
1.01679e-07
-1.81898e-07
1.07909e-07
-2.06862e-07
1.13255e-07
-2.32685e-07
1.17696e-07
-2.59183e-07
1.2122e-07
-2.8617e-07
1.23829e-07
-3.13462e-07
1.25529e-07
-3.40875e-07
1.26336e-07
-3.68229e-07
1.26269e-07
-3.95347e-07
1.25351e-07
-4.2206e-07
1.23613e-07
-4.48201e-07
1.21084e-07
-4.73613e-07
1.17798e-07
-4.98144e-07
1.13792e-07
-5.2165e-07
1.09102e-07
-5.43995e-07
1.03769e-07
-5.65052e-07
9.78318e-08
-5.84702e-07
9.13331e-08
-6.02835e-07
8.43151e-08
-6.1935e-07
7.68215e-08
-6.34156e-07
6.88966e-08
-6.47171e-07
6.05856e-08
-6.58323e-07
5.19345e-08
-6.6755e-07
4.299e-08
-6.74799e-07
3.37996e-08
-6.8003e-07
2.44116e-08
-6.83212e-07
1.4875e-08
-6.84323e-07
5.23966e-09
-6.83354e-07
-4.44403e-09
-6.80307e-07
-1.41248e-08
-6.75192e-07
-2.37508e-08
-6.68035e-07
-3.32696e-08
-6.58868e-07
-4.26281e-08
-6.47738e-07
-5.1773e-08
-6.34702e-07
-6.06505e-08
-6.19829e-07
-6.92069e-08
-6.03197e-07
-7.73882e-08
-5.84899e-07
-8.5141e-08
-5.65035e-07
-9.24122e-08
-5.43718e-07
-9.91495e-08
-5.21072e-07
-1.05302e-07
-4.9723e-07
-1.10819e-07
-4.72336e-07
-1.15653e-07
-4.46541e-07
-1.19758e-07
-4.20007e-07
-1.23091e-07
-3.92903e-07
-1.25612e-07
-3.65405e-07
-1.27285e-07
-3.37696e-07
-1.28076e-07
-3.09962e-07
-1.2796e-07
-2.82394e-07
-1.26914e-07
-2.55186e-07
-1.24924e-07
-2.2853e-07
-1.21983e-07
-2.0262e-07
-1.1809e-07
-1.77645e-07
-1.13258e-07
-1.53788e-07
-1.07509e-07
-1.31225e-07
-1.00879e-07
-1.10119e-07
-9.34191e-08
-9.06213e-08
-8.52004e-08
-7.28641e-08
-7.6315e-08
-5.69588e-08
-6.6882e-08
-4.29917e-08
-5.7052e-08
-3.10205e-08
-4.70145e-08
-2.10705e-08
-3.70053e-08
-1.31317e-08
-2.73171e-08
-7.15698e-09
-1.83109e-08
-3.06154e-09
-1.04277e-08
-7.253e-10
-4.2021e-09
-3.21043e-10
-1.05703e-09
1.6963e-09
-4.27064e-09
8.31477e-09
-9.68976e-09
1.72413e-08
-1.73513e-08
2.77582e-08
-2.72698e-08
3.92992e-08
-3.94332e-08
5.13937e-08
-5.38009e-08
6.36555e-08
-7.03047e-08
7.57717e-08
-8.88501e-08
8.74913e-08
-1.09319e-07
9.86151e-08
-1.31574e-07
1.08987e-07
-1.55459e-07
1.18487e-07
-1.80805e-07
1.27025e-07
-2.07431e-07
1.34535e-07
-2.35148e-07
1.40972e-07
-2.63762e-07
1.46309e-07
-2.93074e-07
1.50533e-07
-3.22886e-07
1.53641e-07
-3.52998e-07
1.55641e-07
-3.83212e-07
1.5655e-07
-4.13335e-07
1.56392e-07
-4.43177e-07
1.55193e-07
-4.72553e-07
1.52989e-07
-5.01285e-07
1.49816e-07
-5.29202e-07
1.45715e-07
-5.5614e-07
1.4073e-07
-5.81944e-07
1.34905e-07
-6.06465e-07
1.2829e-07
-6.29567e-07
1.20933e-07
-6.5112e-07
1.12886e-07
-6.71004e-07
1.042e-07
-6.89112e-07
9.49291e-08
-7.05343e-07
8.51278e-08
-7.19609e-07
7.48518e-08
-7.31832e-07
6.41575e-08
-7.41945e-07
5.31025e-08
-7.49891e-07
4.17454e-08
-7.55625e-07
3.01456e-08
-7.59113e-07
1.83635e-08
-7.60334e-07
6.46032e-09
-7.59276e-07
-5.50168e-09
-7.55941e-07
-1.74595e-08
-7.50343e-07
-2.93493e-08
-7.42506e-07
-4.11066e-08
-7.32468e-07
-5.26661e-08
-7.20279e-07
-6.39624e-08
-7.06e-07
-7.49294e-08
-6.89705e-07
-8.55012e-08
-6.71482e-07
-9.56116e-08
-6.51428e-07
-1.05195e-07
-6.29653e-07
-1.14187e-07
-6.0628e-07
-1.22522e-07
-5.81442e-07
-1.3014e-07
-5.55283e-07
-1.36978e-07
-5.27959e-07
-1.42978e-07
-4.99632e-07
-1.48084e-07
-4.70479e-07
-1.52244e-07
-4.40682e-07
-1.5541e-07
-4.10429e-07
-1.57537e-07
-3.79919e-07
-1.58587e-07
-3.49352e-07
-1.58527e-07
-3.18935e-07
-1.57332e-07
-2.88875e-07
-1.54984e-07
-2.59381e-07
-1.51477e-07
-2.3066e-07
-1.46811e-07
-2.02916e-07
-1.41002e-07
-1.76347e-07
-1.34078e-07
-1.51143e-07
-1.26083e-07
-1.27481e-07
-1.17081e-07
-1.05526e-07
-1.07155e-07
-8.54253e-08
-9.6416e-08
-6.73046e-08
-8.50027e-08
-5.12669e-08
-7.30898e-08
-3.73882e-08
-6.08931e-08
-2.57158e-08
-4.86778e-08
-1.6266e-08
-3.67669e-08
-9.02453e-09
-2.55524e-08
-3.94766e-09
-1.55045e-08
-9.6711e-10
-7.18265e-09
-1.28815e-09
-1.2996e-09
2.9959e-09
-5.1683e-09
1.21835e-08
-1.15915e-08
2.36645e-08
-2.05522e-08
3.6719e-08
-3.20201e-08
5.07671e-08
-4.59457e-08
6.53193e-08
-6.22575e-08
7.99674e-08
-8.08614e-08
9.43756e-08
-1.01641e-07
1.08271e-07
-1.24459e-07
1.21433e-07
-1.49161e-07
1.33689e-07
-1.75576e-07
1.44902e-07
-2.0352e-07
1.54968e-07
-2.32798e-07
1.63812e-07
-2.63207e-07
1.71382e-07
-2.94541e-07
1.77643e-07
-3.26588e-07
1.8258e-07
-3.59135e-07
1.86188e-07
-3.9197e-07
1.88476e-07
-4.24883e-07
1.89464e-07
-4.57668e-07
1.89176e-07
-4.90121e-07
1.87646e-07
-5.22046e-07
1.84914e-07
-5.53254e-07
1.81023e-07
-5.8356e-07
1.76022e-07
-6.12791e-07
1.6996e-07
-6.4078e-07
1.62894e-07
-6.67369e-07
1.5488e-07
-6.92412e-07
1.45976e-07
-7.1577e-07
1.36244e-07
-7.37316e-07
1.25746e-07
-7.56933e-07
1.14546e-07
-7.74515e-07
1.0271e-07
-7.89967e-07
9.03039e-08
-8.03206e-07
7.73961e-08
-8.14159e-07
6.40557e-08
-8.22766e-07
5.03529e-08
-8.2898e-07
3.63592e-08
-8.32763e-07
2.21469e-08
-8.34093e-07
7.78993e-09
-8.32957e-07
-6.63723e-09
-8.29358e-07
-2.10589e-08
-8.23309e-07
-3.53984e-08
-8.14837e-07
-4.95783e-08
-8.03983e-07
-6.35206e-08
-7.90799e-07
-7.71465e-08
-7.75351e-07
-9.03771e-08
-7.57719e-07
-1.03133e-07
-7.37994e-07
-1.15336e-07
-7.16283e-07
-1.26907e-07
-6.92702e-07
-1.37768e-07
-6.67381e-07
-1.47843e-07
-6.40464e-07
-1.57057e-07
-6.12104e-07
-1.65338e-07
-5.82466e-07
-1.72616e-07
-5.51726e-07
-1.78824e-07
-5.20069e-07
-1.83901e-07
-4.87692e-07
-1.87788e-07
-4.54795e-07
-1.90434e-07
-4.21589e-07
-1.91793e-07
-3.88289e-07
-1.91827e-07
-3.55113e-07
-1.90507e-07
-3.22285e-07
-1.87813e-07
-2.90026e-07
-1.83736e-07
-2.58558e-07
-1.78279e-07
-2.28098e-07
-1.71462e-07
-1.98859e-07
-1.63317e-07
-1.71045e-07
-1.53898e-07
-1.44847e-07
-1.43278e-07
-1.20446e-07
-1.31556e-07
-9.8004e-08
-1.18858e-07
-7.76639e-08
-1.05343e-07
-5.95471e-08
-9.12066e-08
-4.37508e-08
-7.66894e-08
-3.03465e-08
-6.2082e-08
-1.93797e-08
-4.77337e-08
-1.08706e-08
-3.40615e-08
-4.81732e-09
-2.15578e-08
-1.20162e-09
-1.07984e-08
-2.48976e-09
-1.53338e-09
4.52928e-09
-6.04162e-09
1.66917e-08
-1.34529e-08
3.10758e-08
-2.36995e-08
4.69655e-08
-3.67068e-08
6.37743e-08
-5.23873e-08
8.09999e-08
-7.06374e-08
9.82174e-08
-9.13351e-08
1.15073e-07
-1.1434e-07
1.31276e-07
-1.39495e-07
1.46588e-07
-1.66626e-07
1.6082e-07
-1.95546e-07
1.73821e-07
-2.26054e-07
1.85477e-07
-2.57944e-07
1.95702e-07
-2.90997e-07
2.04435e-07
-3.24994e-07
2.1164e-07
-3.5971e-07
2.17296e-07
-3.9492e-07
2.21398e-07
-4.30401e-07
2.23957e-07
-4.65928e-07
2.24991e-07
-5.01285e-07
2.24533e-07
-5.36257e-07
2.22619e-07
-5.70637e-07
2.19294e-07
-6.04223e-07
2.1461e-07
-6.36823e-07
2.08621e-07
-6.68251e-07
2.01388e-07
-6.98331e-07
1.92975e-07
-7.26898e-07
1.83447e-07
-7.53795e-07
1.72873e-07
-7.78876e-07
1.61325e-07
-8.02007e-07
1.48877e-07
-8.23064e-07
1.35603e-07
-8.41935e-07
1.2158e-07
-8.58518e-07
1.06888e-07
-8.72727e-07
9.16046e-08
-8.84484e-07
7.58126e-08
-8.93725e-07
5.95945e-08
-9.004e-07
4.30342e-08
-9.04471e-07
2.62173e-08
-9.05911e-07
9.23019e-09
-9.04709e-07
-7.83909e-09
-9.00866e-07
-2.49015e-08
-8.94398e-07
-4.18671e-08
-8.85331e-07
-5.86446e-08
-8.7371e-07
-7.51424e-08
-8.59588e-07
-9.12679e-08
-8.43037e-07
-1.06928e-07
-8.2414e-07
-1.22031e-07
-8.02993e-07
-1.36482e-07
-7.79709e-07
-1.50191e-07
-7.5441e-07
-1.63066e-07
-7.27235e-07
-1.75018e-07
-6.98335e-07
-1.85958e-07
-6.6787e-07
-1.95802e-07
-6.36017e-07
-2.04469e-07
-6.02961e-07
-2.1188e-07
-5.68898e-07
-2.17964e-07
-5.34033e-07
-2.22652e-07
-4.98582e-07
-2.25885e-07
-4.62765e-07
-2.2761e-07
-4.2681e-07
-2.27782e-07
-3.90949e-07
-2.26368e-07
-3.55417e-07
-2.23345e-07
-3.2045e-07
-2.18703e-07
-2.86283e-07
-2.12446e-07
-2.53147e-07
-2.04597e-07
-2.21269e-07
-1.95195e-07
-1.90868e-07
-1.84299e-07
-1.62151e-07
-1.71996e-07
-1.35312e-07
-1.58394e-07
-1.10533e-07
-1.43638e-07
-8.7974e-08
-1.27902e-07
-6.7777e-08
-1.11404e-07
-5.00622e-08
-9.44042e-08
-3.49275e-08
-7.72168e-08
-2.24487e-08
-6.02125e-08
-1.26814e-08
-4.38288e-08
-5.66489e-09
-2.85744e-08
-1.42788e-09
-1.50354e-08
-3.91764e-09
-1.75838e-09
6.28766e-09
-6.88863e-09
2.1822e-08
-1.52677e-08
3.94548e-08
-2.67805e-08
5.84783e-08
-4.13098e-08
7.83037e-08
-5.87307e-08
9.84207e-08
-7.89062e-08
1.18393e-07
-1.01686e-07
1.37853e-07
-1.26904e-07
1.56494e-07
-1.5438e-07
1.74065e-07
-1.83922e-07
1.90362e-07
-2.15324e-07
2.05223e-07
-2.4837e-07
2.18523e-07
-2.82837e-07
2.30168e-07
-3.18494e-07
2.40093e-07
-3.55108e-07
2.48253e-07
-3.92441e-07
2.54629e-07
-4.30256e-07
2.59213e-07
-4.68317e-07
2.62018e-07
-5.06391e-07
2.63065e-07
-5.44247e-07
2.6239e-07
-5.81663e-07
2.60034e-07
-6.18419e-07
2.5605e-07
-6.54304e-07
2.50495e-07
-6.89117e-07
2.43434e-07
-7.22663e-07
2.34934e-07
-7.54757e-07
2.25069e-07
-7.85225e-07
2.13915e-07
-8.13904e-07
2.01552e-07
-8.40641e-07
1.88062e-07
-8.65293e-07
1.73529e-07
-8.87732e-07
1.58042e-07
-9.0784e-07
1.41688e-07
-9.2551e-07
1.24558e-07
-9.40651e-07
1.06745e-07
-9.53182e-07
8.83436e-08
-9.63036e-07
6.94485e-08
-9.7016e-07
5.01576e-08
-9.74512e-07
3.05696e-08
-9.76067e-07
1.07848e-08
-9.74811e-07
-9.09499e-09
-9.70745e-07
-2.89669e-08
-9.63886e-07
-4.87266e-08
-9.54262e-07
-6.82687e-08
-9.41917e-07
-8.74872e-08
-9.2691e-07
-1.06275e-07
-9.09313e-07
-1.24525e-07
-8.89214e-07
-1.4213e-07
-8.66714e-07
-1.58982e-07
-8.41929e-07
-1.74976e-07
-8.1499e-07
-1.90005e-07
-7.8604e-07
-2.03967e-07
-7.55237e-07
-2.16761e-07
-7.22751e-07
-2.28288e-07
-6.88764e-07
-2.38455e-07
-6.53473e-07
-2.47172e-07
-6.17081e-07
-2.54355e-07
-5.79806e-07
-2.59927e-07
-5.41872e-07
-2.63819e-07
-5.03511e-07
-2.6597e-07
-4.64964e-07
-2.66329e-07
-4.26474e-07
-2.64858e-07
-3.88288e-07
-2.6153e-07
-3.50657e-07
-2.56334e-07
-3.13827e-07
-2.49276e-07
-2.78044e-07
-2.4038e-07
-2.43551e-07
-2.29689e-07
-2.10579e-07
-2.17271e-07
-1.79353e-07
-2.03221e-07
-1.50086e-07
-1.87662e-07
-1.22974e-07
-1.70749e-07
-9.81991e-08
-1.52676e-07
-7.59254e-08
-1.33677e-07
-5.62973e-08
-1.14032e-07
-3.94402e-08
-9.40738e-08
-2.54612e-08
-7.41915e-08
-1.44511e-08
-5.48389e-08
-6.48847e-09
-3.6537e-08
-1.64588e-09
-1.98779e-08
-5.56353e-09
-1.97508e-09
8.26274e-09
-7.70955e-09
2.75564e-08
-1.70344e-08
4.87797e-08
-2.97908e-08
7.12346e-08
-4.58208e-08
9.43337e-08
-6.49626e-08
1.17563e-07
-8.70462e-08
1.40477e-07
-1.11892e-07
1.62698e-07
-1.39307e-07
1.83909e-07
-1.69089e-07
2.03847e-07
-2.01025e-07
2.22297e-07
-2.34888e-07
2.39087e-07
-2.70448e-07
2.54083e-07
-3.07464e-07
2.67185e-07
-3.45692e-07
2.78321e-07
-3.84884e-07
2.87446e-07
-4.24792e-07
2.94536e-07
-4.65164e-07
2.99586e-07
-5.05755e-07
3.02608e-07
-5.46319e-07
3.03629e-07
-5.86616e-07
3.02687e-07
-6.26412e-07
2.9983e-07
-6.6548e-07
2.95118e-07
-7.036e-07
2.88615e-07
-7.40559e-07
2.80393e-07
-7.76157e-07
2.70532e-07
-8.10201e-07
2.59112e-07
-8.42508e-07
2.46223e-07
-8.72909e-07
2.31953e-07
-9.01244e-07
2.16397e-07
-9.27366e-07
1.99651e-07
-9.51139e-07
1.81815e-07
-9.72441e-07
1.6299e-07
-9.91162e-07
1.43279e-07
-1.00721e-06
1.22788e-07
-1.02049e-06
1.01625e-07
-1.03094e-06
7.98987e-08
-1.0385e-06
5.77202e-08
-1.04313e-06
3.52023e-08
-1.04481e-06
1.24596e-08
-1.04351e-06
-1.03919e-08
-1.03924e-06
-3.32346e-08
-1.03202e-06
-5.59496e-08
-1.02187e-06
-7.84168e-08
-1.00884e-06
-1.00515e-07
-9.92997e-07
-1.22122e-07
-9.74405e-07
-1.43116e-07
-9.53161e-07
-1.63375e-07
-9.29368e-07
-1.82775e-07
-9.03147e-07
-2.01197e-07
-8.74633e-07
-2.18519e-07
-8.43976e-07
-2.34624e-07
-8.1134e-07
-2.49398e-07
-7.76901e-07
-2.62728e-07
-7.40849e-07
-2.74506e-07
-7.03389e-07
-2.84632e-07
-6.64734e-07
-2.9301e-07
-6.2511e-07
-2.99552e-07
-5.84751e-07
-3.04178e-07
-5.439e-07
-3.0682e-07
-5.02809e-07
-3.07421e-07
-4.61732e-07
-3.05934e-07
-4.20931e-07
-3.02332e-07
-3.80666e-07
-2.966e-07
-3.41199e-07
-2.88743e-07
-3.02791e-07
-2.78788e-07
-2.65697e-07
-2.66782e-07
-2.30167e-07
-2.52801e-07
-1.96441e-07
-2.36947e-07
-1.64749e-07
-2.19354e-07
-1.35309e-07
-2.00189e-07
-1.08324e-07
-1.79662e-07
-8.39791e-08
-1.58022e-07
-6.2446e-08
-1.35565e-07
-4.38783e-08
-1.12642e-07
-2.84141e-08
-8.96557e-08
-1.61788e-08
-6.70742e-08
-7.28856e-09
-4.54272e-08
-1.85617e-09
-2.53103e-08
-7.4197e-09
-2.1842e-09
1.04469e-08
-8.50591e-09
3.38781e-08
-1.87547e-08
5.90286e-08
-3.27311e-08
8.5211e-08
-5.02388e-08
1.11841e-07
-7.10801e-08
1.38404e-07
-9.50524e-08
1.64449e-07
-1.21946e-07
1.89592e-07
-1.51542e-07
2.13506e-07
-1.83613e-07
2.35919e-07
-2.17925e-07
2.56608e-07
-2.54231e-07
2.75394e-07
-2.92283e-07
2.92135e-07
-3.31825e-07
3.06726e-07
-3.72597e-07
3.19093e-07
-4.14338e-07
3.29186e-07
-4.56784e-07
3.36982e-07
-4.99676e-07
3.42477e-07
-5.42754e-07
3.45686e-07
-5.85762e-07
3.46638e-07
-6.28452e-07
3.45377e-07
-6.70579e-07
3.41957e-07
-7.11906e-07
3.36445e-07
-7.52206e-07
3.28914e-07
-7.91258e-07
3.19446e-07
-8.28853e-07
3.08127e-07
-8.64793e-07
2.95052e-07
-8.98887e-07
2.80317e-07
-9.30961e-07
2.64026e-07
-9.60848e-07
2.46284e-07
-9.88396e-07
2.27199e-07
-1.01346e-06
2.06884e-07
-1.03593e-06
1.85452e-07
-1.05567e-06
1.63021e-07
-1.07259e-06
1.3971e-07
-1.08661e-06
1.1564e-07
-1.09764e-06
9.09334e-08
-1.10564e-06
6.57165e-08
-1.11055e-06
4.01163e-08
-1.11235e-06
1.42618e-08
-1.11103e-06
-1.17161e-08
-1.10658e-06
-3.76848e-08
-1.09902e-06
-6.35103e-08
-1.08838e-06
-8.9057e-08
-1.0747e-06
-1.14189e-07
-1.05806e-06
-1.38767e-07
-1.03852e-06
-1.62655e-07
-1.01618e-06
-1.85715e-07
-9.91146e-07
-2.07808e-07
-9.63545e-07
-2.28798e-07
-9.33514e-07
-2.4855e-07
-9.01209e-07
-2.6693e-07
-8.66798e-07
-2.83809e-07
-8.30464e-07
-2.99061e-07
-7.92406e-07
-3.12565e-07
-7.52832e-07
-3.24206e-07
-7.11966e-07
-3.33876e-07
-6.70042e-07
-3.41476e-07
-6.27304e-07
-3.46916e-07
-5.84005e-07
-3.50119e-07
-5.40407e-07
-3.51019e-07
-4.96777e-07
-3.49565e-07
-4.53386e-07
-3.45722e-07
-4.1051e-07
-3.39475e-07
-3.68425e-07
-3.30828e-07
-3.27404e-07
-3.19808e-07
-2.8772e-07
-3.06467e-07
-2.49638e-07
-2.90884e-07
-2.13416e-07
-2.73169e-07
-1.79304e-07
-2.53466e-07
-1.47539e-07
-2.31954e-07
-1.18347e-07
-2.08854e-07
-9.19381e-08
-1.84431e-07
-6.85095e-08
-1.58994e-07
-4.82436e-08
-1.32907e-07
-3.13099e-08
-1.06589e-07
-1.78672e-08
-8.05169e-08
-8.06718e-09
-5.52272e-08
-2.05962e-09
-3.13179e-08
-9.47931e-09
-2.38665e-09
1.28336e-08
-9.28005e-09
4.07715e-08
-2.04322e-08
7.01807e-08
-3.56059e-08
1.00385e-07
-5.45683e-08
1.30804e-07
-7.70872e-08
1.60923e-07
-1.02928e-07
1.9029e-07
-1.31851e-07
2.18514e-07
-1.6361e-07
2.45265e-07
-1.97955e-07
2.70263e-07
-2.34626e-07
2.93279e-07
-2.73359e-07
3.14127e-07
-3.13885e-07
3.32661e-07
-3.55932e-07
3.48774e-07
-3.99226e-07
3.62386e-07
-4.43489e-07
3.73449e-07
-4.88447e-07
3.8194e-07
-5.33826e-07
3.87857e-07
-5.79357e-07
3.91217e-07
-6.24773e-07
3.92054e-07
-6.69816e-07
3.90419e-07
-7.14232e-07
3.86373e-07
-7.57775e-07
3.79989e-07
-8.0021e-07
3.71349e-07
-8.41311e-07
3.60546e-07
-8.80859e-07
3.47675e-07
-9.1865e-07
3.32842e-07
-9.54489e-07
3.16156e-07
-9.88194e-07
2.97731e-07
-1.01959e-06
2.77684e-07
-1.04853e-06
2.56138e-07
-1.07487e-06
2.33216e-07
-1.09846e-06
2.09048e-07
-1.1192e-06
1.83762e-07
-1.13698e-06
1.57492e-07
-1.15172e-06
1.30374e-07
-1.16333e-06
1.02545e-07
-1.17176e-06
7.41445e-08
-1.17696e-06
4.5315e-08
-1.17889e-06
1.62006e-08
-1.17756e-06
-1.30529e-08
-1.17294e-06
-4.22973e-08
-1.16507e-06
-7.13832e-08
-1.15397e-06
-1.00159e-07
-1.13968e-06
-1.28473e-07
-1.12228e-06
-1.56172e-07
-1.10184e-06
-1.831e-07
-1.07845e-06
-2.09105e-07