/*--------------------------------*- C++ -*----------------------------------*\
  =========                 |
  \\      /  F ield         | OpenFOAM: The Open Source CFD Toolbox
   \\    /   O peration     | Website:  https://openfoam.org
    \\  /    A nd           | Version:  7
     \\/     M anipulation  |
\*---------------------------------------------------------------------------*/
FoamFile
{
    version     2.0;
    format      ascii;
    class       volVectorField;
    location    "0.45";
    object      U;
}
// * * * * * * * * * * * * * * * * * * * * * * * * * * * * * * * * * * * * * //

dimensions      [0 1 -1 0 0 0 0];

internalField   nonuniform List<vector> 
6400
(
(7.19049e-06 -7.30885e-06 0)
(2.97173e-05 -1.44759e-05 0)
(5.92586e-05 -1.4187e-05 0)
(8.05918e-05 -9.73887e-06 0)
(8.54466e-05 -3.42909e-06 0)
(7.05837e-05 3.54256e-06 0)
(3.48808e-05 1.05623e-05 0)
(-2.16302e-05 1.7312e-05 0)
(-9.81943e-05 2.36293e-05 0)
(-0.000193622 2.94327e-05 0)
(-0.000306469 3.46839e-05 0)
(-0.000435136 3.9368e-05 0)
(-0.000577946 4.34839e-05 0)
(-0.000733176 4.70382e-05 0)
(-0.0008991 5.00429e-05 0)
(-0.001074 5.25129e-05 0)
(-0.00125619 5.44655e-05 0)
(-0.00144401 5.59194e-05 0)
(-0.00163587 5.68939e-05 0)
(-0.0018302 5.74091e-05 0)
(-0.00202553 5.74855e-05 0)
(-0.00222039 5.71437e-05 0)
(-0.00241344 5.64041e-05 0)
(-0.00260335 5.52875e-05 0)
(-0.00278887 5.38143e-05 0)
(-0.00296884 5.20048e-05 0)
(-0.00314213 4.98793e-05 0)
(-0.00330771 4.74579e-05 0)
(-0.00346458 4.47607e-05 0)
(-0.00361184 4.18075e-05 0)
(-0.00374865 3.86183e-05 0)
(-0.00387423 3.5213e-05 0)
(-0.00398786 3.16115e-05 0)
(-0.00408893 2.78339e-05 0)
(-0.00417684 2.39005e-05 0)
(-0.00425112 1.98317e-05 0)
(-0.00431132 1.56483e-05 0)
(-0.00435711 1.13713e-05 0)
(-0.00438819 7.02216e-06 0)
(-0.00440436 2.62269e-06 0)
(-0.0044055 -1.80478e-06 0)
(-0.00439156 -6.23752e-06 0)
(-0.00436256 -1.06523e-05 0)
(-0.00431862 -1.50253e-05 0)
(-0.00425992 -1.93325e-05 0)
(-0.00418674 -2.35492e-05 0)
(-0.00409945 -2.76504e-05 0)
(-0.00399848 -3.16105e-05 0)
(-0.00388438 -3.54039e-05 0)
(-0.00375775 -3.90045e-05 0)
(-0.00361932 -4.23863e-05 0)
(-0.00346987 -4.55231e-05 0)
(-0.00331029 -4.83889e-05 0)
(-0.00314155 -5.09576e-05 0)
(-0.00296469 -5.32038e-05 0)
(-0.00278086 -5.51023e-05 0)
(-0.00259127 -5.66286e-05 0)
(-0.00239721 -5.77591e-05 0)
(-0.00220006 -5.84709e-05 0)
(-0.00200125 -5.87423e-05 0)
(-0.00180229 -5.85529e-05 0)
(-0.00160473 -5.78837e-05 0)
(-0.00141019 -5.67172e-05 0)
(-0.00122033 -5.50379e-05 0)
(-0.00103684 -5.28325e-05 0)
(-0.000861436 -5.00899e-05 0)
(-0.000695857 -4.68017e-05 0)
(-0.000541828 -4.29633e-05 0)
(-0.000401059 -3.85743e-05 0)
(-0.000275213 -3.36407e-05 0)
(-0.000165875 -2.81775e-05 0)
(-7.45058e-05 -2.22144e-05 0)
(-2.37245e-06 -1.58053e-05 0)
(4.95557e-05 -9.04796e-06 0)
(8.07838e-05 -2.12169e-06 0)
(9.1576e-05 4.63997e-06 0)
(8.3378e-05 1.06125e-05 0)
(5.97567e-05 1.45995e-05 0)
(2.92259e-05 1.4355e-05 0)
(6.87021e-06 6.87029e-06 0)
(1.44213e-05 -2.98937e-05 0)
(5.14891e-05 -5.15457e-05 0)
(8.97717e-05 -4.40958e-05 0)
(0.000103515 -1.91084e-05 0)
(7.70039e-05 1.53062e-05 0)
(2.38597e-06 5.41206e-05 0)
(-0.000124039 9.42562e-05 0)
(-0.000303187 0.000133825 0)
(-0.000534014 0.000171666 0)
(-0.000814154 0.000207065 0)
(-0.00114037 0.000239583 0)
(-0.00150884 0.000268958 0)
(-0.0019154 0.000295047 0)
(-0.00235563 0.000317782 0)
(-0.00282501 0.000337154 0)
(-0.003319 0.000353191 0)
(-0.00383303 0.000365949 0)
(-0.00436264 0.000375505 0)
(-0.00490343 0.000381952 0)
(-0.0054511 0.000385391 0)
(-0.00600152 0.000385936 0)
(-0.00655068 0.000383704 0)
(-0.00709474 0.000378817 0)
(-0.00763001 0.000371401 0)
(-0.008153 0.000361585 0)
(-0.00866036 0.000349497 0)
(-0.00914896 0.000335269 0)
(-0.00961583 0.000319034 0)
(-0.0100582 0.000300924 0)
(-0.0104735 0.000281074 0)
(-0.0108592 0.000259617 0)
(-0.0112133 0.000236689 0)
(-0.0115337 0.000212428 0)
(-0.0118185 0.000186971 0)
(-0.0120663 0.000160458 0)
(-0.0122754 0.000133029 0)
(-0.0124449 0.000104829 0)
(-0.0125736 7.60022e-05 0)
(-0.0126608 4.66973e-05 0)
(-0.0127059 1.70644e-05 0)
(-0.0127086 -1.2743e-05 0)
(-0.0126687 -4.2569e-05 0)
(-0.0125863 -7.22546e-05 0)
(-0.0124618 -0.000101638 0)
(-0.0122958 -0.000130556 0)
(-0.0120889 -0.00015884 0)
(-0.0118423 -0.000186323 0)
(-0.0115573 -0.000212833 0)
(-0.0112353 -0.000238199 0)
(-0.0108782 -0.000262247 0)
(-0.0104879 -0.000284805 0)
(-0.0100668 -0.000305701 0)
(-0.0096172 -0.000324764 0)
(-0.00914198 -0.000341824 0)
(-0.00864406 -0.000356718 0)
(-0.00812666 -0.000369284 0)
(-0.00759317 -0.000379366 0)
(-0.00704724 -0.000386818 0)
(-0.00649266 -0.000391497 0)
(-0.00593346 -0.000393273 0)
(-0.00537379 -0.000392027 0)
(-0.00481799 -0.00038765 0)
(-0.00427048 -0.000380052 0)
(-0.00373582 -0.000369156 0)
(-0.00321862 -0.000354907 0)
(-0.00272352 -0.000337274 0)
(-0.00225517 -0.000316255 0)
(-0.00181815 -0.00029188 0)
(-0.00141692 -0.00026423 0)
(-0.00105572 -0.00023344 0)
(-0.000738485 -0.000199734 0)
(-0.000468682 -0.000163451 0)
(-0.000249104 -0.000125108 0)
(-8.15783e-05 -8.54984e-05 0)
(3.3467e-05 -4.58496e-05 0)
(9.76215e-05 -8.09816e-06 0)
(0.000115267 2.46716e-05 0)
(9.48738e-05 4.75093e-05 0)
(5.26137e-05 5.25741e-05 0)
(1.43473e-05 2.92078e-05 0)
(1.42771e-05 -5.94544e-05 0)
(4.45383e-05 -8.99303e-05 0)
(6.12436e-05 -6.04841e-05 0)
(3.55828e-05 6.71407e-06 0)
(-5.08148e-05 9.6247e-05 0)
(-0.000208168 0.000197459 0)
(-0.000441812 0.000303118 0)
(-0.000753451 0.000408387 0)
(-0.00114205 0.000510043 0)
(-0.00160461 0.000605941 0)
(-0.00213671 0.000694667 0)
(-0.00273295 0.000775304 0)
(-0.00338729 0.000847284 0)
(-0.0040932 0.000910283 0)
(-0.00484394 0.000964158 0)
(-0.00563258 0.00100889 0)
(-0.0064522 0.00104457 0)
(-0.00729587 0.00107134 0)
(-0.0081568 0.00108942 0)
(-0.00902833 0.00109906 0)
(-0.00990395 0.00110053 0)
(-0.0107774 0.00109414 0)
(-0.0116426 0.00108023 0)
(-0.0124938 0.00105912 0)
(-0.0133254 0.00103117 0)
(-0.0141321 0.000996748 0)
(-0.0149089 0.000956208 0)
(-0.0156512 0.000909925 0)
(-0.0163545 0.000858277 0)
(-0.0170147 0.000801644 0)
(-0.0176279 0.000740409 0)
(-0.0181907 0.000674962 0)
(-0.0186999 0.000605695 0)
(-0.0191525 0.000533005 0)
(-0.0195461 0.000457294 0)
(-0.0198783 0.000378969 0)
(-0.0201472 0.000298444 0)
(-0.0203514 0.000216139 0)
(-0.0204895 0.000132479 0)
(-0.0205606 4.78993e-05 0)
(-0.0205643 -3.71595e-05 0)
(-0.0205002 -0.000122249 0)
(-0.0203687 -0.000206912 0)
(-0.0201702 -0.000290686 0)
(-0.0199057 -0.000373101 0)
(-0.0195764 -0.00045368 0)
(-0.019184 -0.000531941 0)
(-0.0187306 -0.000607399 0)
(-0.0182186 -0.000679566 0)
(-0.0176508 -0.000747951 0)
(-0.0170305 -0.000812067 0)
(-0.0163612 -0.000871427 0)
(-0.015647 -0.000925551 0)
(-0.0148921 -0.000973967 0)
(-0.0141012 -0.00101621 0)
(-0.0132795 -0.00105184 0)
(-0.0124322 -0.00108043 0)
(-0.0115652 -0.00110156 0)
(-0.0106844 -0.00111486 0)
(-0.00979612 -0.00111997 0)
(-0.00890688 -0.00111658 0)
(-0.00802342 -0.00110441 0)
(-0.00715266 -0.00108324 0)
(-0.00630166 -0.00105288 0)
(-0.00547752 -0.00101323 0)
(-0.00468739 -0.000964253 0)
(-0.00393835 -0.000906018 0)
(-0.00323733 -0.000838696 0)
(-0.00259099 -0.00076261 0)
(-0.00200561 -0.000678271 0)
(-0.00148687 -0.000586443 0)
(-0.00103968 -0.000488242 0)
(-0.000667798 -0.000385275 0)
(-0.000373479 -0.00027986 0)
(-0.000156897 -0.000175366 0)
(-1.54231e-05 -7.67091e-05 0)
(5.71873e-05 8.91137e-06 0)
(7.19593e-05 7.10691e-05 0)
(4.79816e-05 9.4935e-05 0)
(1.46776e-05 5.97998e-05 0)
(1.00501e-05 -8.12082e-05 0)
(2.03937e-05 -0.000104409 0)
(-4.2994e-06 -3.51763e-05 0)
(-9.08054e-05 9.36604e-05 0)
(-0.000257272 0.000259334 0)
(-0.000514647 0.000445296 0)
(-0.000868841 0.000639683 0)
(-0.00132181 0.000834135 0)
(-0.00187239 0.0010228 0)
(-0.00251707 0.0012016 0)
(-0.00325054 0.00136771 0)
(-0.00406621 0.00151924 0)
(-0.00495655 0.00165493 0)
(-0.00591338 0.001774 0)
(-0.00692811 0.00187604 0)
(-0.00799188 0.00196091 0)
(-0.00909573 0.00202866 0)
(-0.0102307 0.00207951 0)
(-0.0113879 0.00211378 0)
(-0.0125585 0.0021319 0)
(-0.0137341 0.00213435 0)
(-0.0149064 0.00212171 0)
(-0.0160673 0.00209455 0)
(-0.0172091 0.00205352 0)
(-0.0183244 0.00199926 0)
(-0.0194062 0.00193246 0)
(-0.0204479 0.00185382 0)
(-0.0214431 0.00176405 0)
(-0.0223859 0.00166386 0)
(-0.0232708 0.001554 0)
(-0.0240928 0.00143521 0)
(-0.024847 0.00130823 0)
(-0.0255292 0.00117385 0)
(-0.0261356 0.00103282 0)
(-0.0266628 0.000885927 0)
(-0.0271076 0.000733973 0)
(-0.0274676 0.000577761 0)
(-0.0277407 0.000418109 0)
(-0.0279252 0.000255849 0)
(-0.0280199 9.18264e-05 0)
(-0.0280241 -7.30986e-05 0)
(-0.0279377 -0.000238053 0)
(-0.0277608 -0.000402149 0)
(-0.0274941 -0.000564486 0)
(-0.0271391 -0.000724153 0)
(-0.0266973 -0.000880226 0)
(-0.026171 -0.00103177 0)
(-0.0255631 -0.00117785 0)
(-0.0248767 -0.00131753 0)
(-0.0241157 -0.00144985 0)
(-0.0232845 -0.00157388 0)
(-0.0223877 -0.00168869 0)
(-0.0214307 -0.00179336 0)
(-0.0204193 -0.00188699 0)
(-0.0193598 -0.00196869 0)
(-0.0182588 -0.00203762 0)
(-0.0171237 -0.00209296 0)
(-0.0159618 -0.00213396 0)
(-0.0147813 -0.0021599 0)
(-0.0135903 -0.00217013 0)
(-0.0123976 -0.00216407 0)
(-0.011212 -0.00214122 0)
(-0.0100425 -0.0021012 0)
(-0.00889846 -0.00204371 0)
(-0.00778903 -0.00196863 0)
(-0.00672351 -0.00187595 0)
(-0.00571104 -0.00176589 0)
(-0.00476049 -0.00163888 0)
(-0.00388034 -0.00149566 0)
(-0.00307847 -0.00133735 0)
(-0.00236196 -0.00116554 0)
(-0.0017368 -0.000982503 0)
(-0.0012075 -0.000791378 0)
(-0.000776678 -0.00059654 0)
(-0.000444451 -0.00040407 0)
(-0.000207764 -0.00022244 0)
(-5.96127e-05 -6.34399e-05 0)
(1.19483e-05 5.67486e-05 0)
(2.61157e-05 0.000116197 0)
(1.09054e-05 8.38472e-05 0)
(4.01759e-06 -8.70505e-05 0)
(-1.30133e-05 -7.95389e-05 0)
(-9.19794e-05 4.99577e-05 0)
(-0.000253967 0.000259688 0)
(-0.000514821 0.000520254 0)
(-0.00088499 0.000809597 0)
(-0.00137005 0.00111132 0)
(-0.00197162 0.00141343 0)
(-0.00268812 0.00170721 0)
(-0.00351544 0.00198638 0)
(-0.00444748 0.00224644 0)
(-0.00547662 0.00248426 0)
(-0.00659413 0.00269767 0)
(-0.00779043 0.00288529 0)
(-0.0090554 0.0030463 0)
(-0.0103786 0.00318032 0)
(-0.0117492 0.00328732 0)
(-0.0131567 0.00336752 0)
(-0.0145902 0.00342137 0)
(-0.0160393 0.00344945 0)
(-0.0174936 0.00345251 0)
(-0.0189429 0.00343136 0)
(-0.0203777 0.00338693 0)
(-0.0217884 0.0033202 0)
(-0.0231661 0.00323218 0)
(-0.024502 0.00312396 0)
(-0.0257882 0.00299663 0)
(-0.0270167 0.00285134 0)
(-0.0281805 0.00268924 0)
(-0.0292726 0.00251151 0)
(-0.0302868 0.00231935 0)
(-0.0312174 0.00211397 0)
(-0.032059 0.0018966 0)
(-0.0328069 0.00166851 0)
(-0.0334569 0.00143096 0)
(-0.0340053 0.00118523 0)
(-0.034449 0.000932635 0)
(-0.0347853 0.000674506 0)
(-0.0350123 0.000412189 0)
(-0.0351286 0.000147056 0)
(-0.0351332 -0.000119501 0)
(-0.0350259 -0.000386066 0)
(-0.0348071 -0.000651203 0)
(-0.0344776 -0.000913457 0)
(-0.0340391 -0.00117135 0)
(-0.0334936 -0.0014234 0)
(-0.0328441 -0.0016681 0)
(-0.0320938 -0.00190394 0)
(-0.0312469 -0.00212941 0)
(-0.030308 -0.00234298 0)
(-0.0292825 -0.00254316 0)
(-0.0281761 -0.00272845 0)
(-0.0269955 -0.00289739 0)
(-0.0257478 -0.00304852 0)
(-0.0244406 -0.00318047 0)
(-0.0230821 -0.00329189 0)
(-0.0216811 -0.00338149 0)
(-0.0202469 -0.00344807 0)
(-0.0187891 -0.00349052 0)
(-0.0173178 -0.00350783 0)
(-0.0158435 -0.00349913 0)
(-0.014377 -0.00346366 0)
(-0.0129291 -0.00340087 0)
(-0.011511 -0.00331036 0)
(-0.0101339 -0.00319199 0)
(-0.0088087 -0.00304588 0)
(-0.00754639 -0.00287247 0)
(-0.00635746 -0.00267258 0)
(-0.00525192 -0.00244752 0)
(-0.00423899 -0.0021992 0)
(-0.00332691 -0.0019303 0)
(-0.0025226 -0.0016445 0)
(-0.00183129 -0.00134678 0)
(-0.00125606 -0.00104384 0)
(-0.000797321 -0.00074474 0)
(-0.000452197 -0.000461619 0)
(-0.000213846 -0.000210789 0)
(-7.06137e-05 -1.3861e-05 0)
(-5.2334e-06 0.000100739 0)
(5.26178e-06 9.31376e-05 0)
(-2.66712e-06 -7.37665e-05 0)
(-5.09312e-05 -7.37648e-06 0)
(-0.000191885 0.000205456 0)
(-0.000438765 0.000516347 0)
(-0.000803685 0.000890355 0)
(-0.00129565 0.00130056 0)
(-0.00191914 0.00172637 0)
(-0.0026749 0.00215229 0)
(-0.00356057 0.00256673 0)
(-0.00457128 0.00296108 0)
(-0.00570007 0.00332903 0)
(-0.00693837 0.00366603 0)
(-0.00827635 0.00396888 0)
(-0.00970324 0.00423542 0)
(-0.0112076 0.00446432 0)
(-0.0127775 0.00465489 0)
(-0.0144009 0.00480692 0)
(-0.0160654 0.00492062 0)
(-0.0177588 0.00499651 0)
(-0.0194689 0.00503535 0)
(-0.021184 0.00503813 0)
(-0.0228922 0.00500596 0)
(-0.0245823 0.00494012 0)
(-0.0262435 0.00484198 0)
(-0.0278651 0.00471299 0)
(-0.0294372 0.00455467 0)
(-0.0309503 0.0043686 0)
(-0.0323954 0.00415642 0)
(-0.0337639 0.0039198 0)
(-0.035048 0.00366043 0)
(-0.0362403 0.00338007 0)
(-0.0373341 0.00308047 0)
(-0.0383231 0.00276343 0)
(-0.0392019 0.00243078 0)
(-0.0399655 0.00208436 0)
(-0.0406096 0.00172606 0)
(-0.0411305 0.00135779 0)
(-0.0415253 0.000981493 0)
(-0.0417916 0.000599129 0)
(-0.0419277 0.000212703 0)
(-0.0419326 -0.000175751 0)
(-0.041806 -0.00056417 0)
(-0.0415484 -0.000950463 0)
(-0.0411608 -0.00133251 0)
(-0.0406451 -0.00170816 0)
(-0.0400039 -0.00207526 0)
(-0.0392403 -0.00243162 0)
(-0.0383585 -0.00277505 0)
(-0.0373632 -0.00310336 0)
(-0.0362597 -0.00341435 0)
(-0.0350544 -0.00370585 0)
(-0.0337542 -0.0039757 0)
(-0.0323665 -0.00422179 0)
(-0.0308998 -0.00444205 0)
(-0.0293628 -0.00463448 0)
(-0.0277653 -0.00479717 0)
(-0.0261174 -0.00492828 0)
(-0.0244298 -0.0050261 0)
(-0.0227137 -0.00508908 0)
(-0.0209809 -0.00511579 0)
(-0.0192433 -0.00510502 0)
(-0.0175134 -0.00505577 0)
(-0.0158038 -0.00496728 0)
(-0.0141272 -0.0048391 0)
(-0.0124965 -0.0046711 0)
(-0.0109241 -0.00446357 0)
(-0.00942263 -0.00421726 0)
(-0.0080039 -0.00393349 0)
(-0.00667924 -0.00361427 0)
(-0.0054591 -0.00326248 0)
(-0.00435275 -0.00288204 0)
(-0.00336803 -0.00247821 0)
(-0.00251094 -0.00205799 0)
(-0.00178523 -0.00163056 0)
(-0.00119196 -0.00120795 0)
(-0.000729021 -0.000805904 0)
(-0.000390473 -0.000444943 0)
(-0.00016588 -0.000151527 0)
(-4.133e-05 4.04038e-05 0)
(-1.0961e-06 8.43167e-05 0)
(-9.44567e-06 -4.01098e-05 0)
(-9.05979e-05 0.000116264 0)
(-0.000297624 0.000437576 0)
(-0.000634901 0.000870948 0)
(-0.00110994 0.00137711 0)
(-0.00172961 0.00192506 0)
(-0.00249673 0.00249054 0)
(-0.00341063 0.00305481 0)
(-0.00446787 0.00360353 0)
(-0.00566257 0.0041258 0)
(-0.00698682 0.00461344 0)
(-0.00843104 0.00506043 0)
(-0.00998437 0.00546241 0)
(-0.0116349 0.00581638 0)
(-0.01337 0.00612042 0)
(-0.0151766 0.00637342 0)
(-0.0170412 0.00657497 0)
(-0.0189501 0.00672522 0)
(-0.0208898 0.00682473 0)
(-0.0228468 0.00687443 0)
(-0.0248076 0.00687553 0)
(-0.0267593 0.0068295 0)
(-0.0286892 0.00673797 0)
(-0.0305851 0.00660274 0)
(-0.0324351 0.00642572 0)
(-0.034228 0.00620895 0)
(-0.0359531 0.00595455 0)
(-0.0376001 0.0056647 0)
(-0.0391596 0.00534166 0)
(-0.0406225 0.00498772 0)
(-0.0419806 0.00460524 0)
(-0.0432263 0.00419663 0)
(-0.0443525 0.00376431 0)
(-0.045353 0.00331078 0)
(-0.0462222 0.00283855 0)
(-0.0469553 0.00235019 0)
(-0.0475481 0.00184829 0)
(-0.0479971 0.0013355 0)
(-0.0482999 0.000814512 0)
(-0.0484545 0.000288044 0)
(-0.0484597 -0.000241134 0)
(-0.0483154 -0.000770212 0)
(-0.0480218 -0.00129634 0)
(-0.0475804 -0.00181665 0)
(-0.0469932 -0.00232821 0)
(-0.046263 -0.0028281 0)
(-0.0453937 -0.00331334 0)
(-0.0443897 -0.00378097 0)
(-0.0432565 -0.00422802 0)
(-0.0420002 -0.00465153 0)
(-0.0406278 -0.00504855 0)
(-0.039147 -0.00541618 0)
(-0.0375666 -0.00575158 0)
(-0.0358957 -0.00605197 0)
(-0.0341445 -0.00631466 0)
(-0.0323237 -0.00653707 0)
(-0.0304448 -0.00671679 0)
(-0.0285198 -0.00685153 0)
(-0.0265614 -0.00693923 0)
(-0.0245825 -0.00697804 0)
(-0.0225967 -0.00696637 0)
(-0.0206179 -0.00690294 0)
(-0.0186602 -0.00678682 0)
(-0.0167377 -0.0066175 0)
(-0.0148646 -0.0063949 0)
(-0.013055 -0.00611954 0)
(-0.0113226 -0.00579255 0)
(-0.00968062 -0.00541583 0)
(-0.00814157 -0.0049922 0)
(-0.00671698 -0.00452559 0)
(-0.00541719 -0.00402129 0)
(-0.00425097 -0.00348626 0)
(-0.00322523 -0.00292953 0)
(-0.00234464 -0.00236278 0)
(-0.00161129 -0.00180094 0)
(-0.00102427 -0.00126308 0)
(-0.000579161 -0.000773497 0)
(-0.000267422 -0.00036277 0)
(-7.93751e-05 -6.92221e-05 0)
(-7.5932e-06 5.60115e-05 0)
(-1.60562e-05 1.41791e-05 0)
(-0.00013045 0.000293211 0)
(-0.000405219 0.000749586 0)
(-0.000835616 0.00132767 0)
(-0.00142411 0.00198502 0)
(-0.00217498 0.00268739 0)
(-0.0030889 0.0034074 0)
(-0.00416347 0.00412347 0)
(-0.00539379 0.00481872 0)
(-0.00677277 0.00548009 0)
(-0.00829138 0.00609757 0)
(-0.00993898 0.00666365 0)
(-0.0117036 0.00717282 0)
(-0.0135724 0.00762117 0)
(-0.0155314 0.00800611 0)
(-0.0175666 0.00832611 0)
(-0.0196631 0.00858051 0)
(-0.0218062 0.00876933 0)
(-0.0239811 0.00889319 0)
(-0.0261729 0.00895317 0)
(-0.0283671 0.00895073 0)
(-0.0305495 0.00888764 0)
(-0.0327061 0.00876596 0)
(-0.0348235 0.00858792 0)
(-0.0368887 0.00835597 0)
(-0.0388893 0.00807267 0)
(-0.0408136 0.00774073 0)
(-0.0426503 0.00736295 0)
(-0.0443888 0.00694222 0)
(-0.0460194 0.0064815 0)
(-0.0475328 0.00598385 0)
(-0.0489206 0.00545235 0)
(-0.0501752 0.00489016 0)
(-0.0512896 0.00430051 0)
(-0.0522576 0.00368665 0)
(-0.0530739 0.00305191 0)
(-0.0537338 0.00239968 0)
(-0.0542338 0.00173337 0)
(-0.0545708 0.00105648 0)
(-0.0547428 0.000372533 0)
(-0.0547486 -0.000314868 0)
(-0.0545878 -0.00100209 0)
(-0.054261 -0.00168543 0)
(-0.0537695 -0.00236117 0)
(-0.0531158 -0.00302554 0)
(-0.0523029 -0.00367472 0)
(-0.051335 -0.00430491 0)
(-0.0502171 -0.00491226 0)
(-0.0489552 -0.00549293 0)
(-0.0475561 -0.00604312 0)
(-0.0460275 -0.00655903 0)
(-0.0443779 -0.00703692 0)
(-0.0426168 -0.00747316 0)
(-0.0407546 -0.00786416 0)
(-0.0388022 -0.00820649 0)
(-0.0367715 -0.00849688 0)
(-0.034675 -0.00873221 0)
(-0.0325261 -0.00890962 0)
(-0.0303384 -0.00902648 0)
(-0.0281264 -0.00908047 0)
(-0.0259049 -0.00906962 0)
(-0.023689 -0.00899237 0)
(-0.0214941 -0.00884761 0)
(-0.0193357 -0.00863476 0)
(-0.0172293 -0.00835385 0)
(-0.0151902 -0.00800565 0)
(-0.0132333 -0.00759171 0)
(-0.0113731 -0.00711459 0)
(-0.00962316 -0.00657798 0)
(-0.0079962 -0.00598691 0)
(-0.00650355 -0.0053481 0)
(-0.00515507 -0.00467021 0)
(-0.00395872 -0.00396433 0)
(-0.00292033 -0.0032445 0)
(-0.00204332 -0.00252835 0)
(-0.0013284 -0.00183798 0)
(-0.000773078 -0.00120092 0)
(-0.000371198 -0.000651115 0)
(-0.000117761 -0.000230171 0)
(-1.39526e-05 7.86455e-06 0)
(-2.23889e-05 8.88038e-05 0)
(-0.000169639 0.000523758 0)
(-0.000512284 0.00114265 0)
(-0.00103661 0.00188841 0)
(-0.00173992 0.00271641 0)
(-0.00262362 0.00358991 0)
(-0.00368596 0.00447902 0)
(-0.00492247 0.00535971 0)
(-0.00632657 0.00621287 0)
(-0.00788972 0.00702344 0)
(-0.00960163 0.00777972 0)
(-0.0114505 0.00847275 0)
(-0.0134232 0.00909587 0)
(-0.0155058 0.00964427 0)
(-0.0176833 0.0101147 0)
(-0.0199405 0.0105052 0)
(-0.0222615 0.0108147 0)
(-0.0246304 0.0110433 0)
(-0.0270313 0.0111915 0)
(-0.0294483 0.0112605 0)
(-0.0318656 0.0112522 0)
(-0.034268 0.0111685 0)
(-0.0366403 0.011012 0)
(-0.0389681 0.0107854 0)
(-0.0412375 0.0104917 0)
(-0.0434348 0.0101339 0)
(-0.0455475 0.00971555 0)
(-0.0475634 0.00923998 0)
(-0.0494709 0.00871082 0)
(-0.0512596 0.00813174 0)
(-0.0529194 0.00750653 0)
(-0.0544412 0.00683906 0)
(-0.0558166 0.00613327 0)
(-0.0570381 0.00539317 0)
(-0.0580992 0.00462286 0)
(-0.0589938 0.00382648 0)
(-0.0597172 0.00300826 0)
(-0.0602651 0.0021725 0)
(-0.0606346 0.00132355 0)
(-0.0608233 0.000465842 0)
(-0.0608299 -0.000396138 0)
(-0.0606541 -0.00125784 0)
(-0.0602963 -0.00211464 0)
(-0.0597583 -0.0029619 0)
(-0.0590424 -0.00379489 0)
(-0.0581522 -0.00460887 0)
(-0.0570921 -0.00539909 0)
(-0.0558676 -0.00616075 0)
(-0.054485 -0.00688908 0)
(-0.0529519 -0.00757933 0)
(-0.0512764 -0.00822681 0)
(-0.049468 -0.00882687 0)
(-0.0475367 -0.00937497 0)
(-0.0454939 -0.00986671 0)
(-0.0433513 -0.0102978 0)
(-0.0411219 -0.0106643 0)
(-0.0388192 -0.0109622 0)
(-0.0364574 -0.0111882 0)
(-0.0340516 -0.0113389 0)
(-0.0316171 -0.0114116 0)
(-0.0291699 -0.0114039 0)
(-0.0267265 -0.0113138 0)
(-0.0243032 -0.0111402 0)
(-0.0219169 -0.0108824 0)
(-0.0195842 -0.0105405 0)
(-0.0173216 -0.0101156 0)
(-0.0151452 -0.00960972 0)
(-0.0130706 -0.00902603 0)
(-0.0111125 -0.00836915 0)
(-0.00928473 -0.00764526 0)
(-0.00759977 -0.00686247 0)
(-0.0060686 -0.00603113 0)
(-0.00470046 -0.00516427 0)
(-0.00350255 -0.00427817 0)
(-0.00247987 -0.00339292 0)
(-0.00163505 -0.00253325 0)
(-0.000967858 -0.0017294 0)
(-0.000474762 -0.00101797 0)
(-0.000155603 -0.000442907 0)
(-2.00537e-05 -5.98987e-05 0)
(-2.84103e-05 0.00018319 0)
(-0.000207738 0.000807283 0)
(-0.000617455 0.00161657 0)
(-0.00123527 0.00255346 0)
(-0.00205337 0.00357195 0)
(-0.00307018 0.00463351 0)
(-0.00428133 0.00570623 0)
(-0.00568008 0.00676407 0)
(-0.00725796 0.007786 0)
(-0.0090048 0.00875518 0)
(-0.0109089 0.00965837 0)
(-0.0129571 0.0104853 0)
(-0.0151352 0.0112282 0)
(-0.0174281 0.0118813 0)
(-0.0198197 0.0124409 0)
(-0.0222936 0.0129043 0)
(-0.0248331 0.0132705 0)
(-0.0274211 0.0135392 0)
(-0.0300406 0.0137111 0)
(-0.0326747 0.0137875 0)
(-0.0353067 0.0137704 0)
(-0.0379202 0.0136624 0)
(-0.0404992 0.0134662 0)
(-0.0430282 0.0131851 0)
(-0.0454923 0.0128227 0)
(-0.0478772 0.0123828 0)
(-0.0501692 0.0118693 0)
(-0.0523554 0.0112864 0)
(-0.0544235 0.0106385 0)
(-0.0563622 0.00992996 0)
(-0.0581608 0.00916543 0)
(-0.0598095 0.00834957 0)
(-0.0612995 0.00748717 0)
(-0.0626227 0.0065831 0)
(-0.0637718 0.00564234 0)
(-0.0647408 0.00466993 0)
(-0.0655243 0.00367102 0)
(-0.066118 0.00265081 0)
(-0.0665185 0.00161463 0)
(-0.0667234 0.000567842 0)
(-0.0667312 -0.00048409 0)
(-0.0665417 -0.00153563 0)
(-0.0661553 -0.00258119 0)
(-0.0655738 -0.00361509 0)
(-0.0647999 -0.00463162 0)
(-0.0638371 -0.00562503 0)
(-0.0626904 -0.00658954 0)
(-0.0613655 -0.00751935 0)
(-0.0598693 -0.00840868 0)
(-0.0582096 -0.00925178 0)
(-0.0563954 -0.010043 0)
(-0.0544367 -0.0107766 0)
(-0.0523442 -0.0114473 0)
(-0.0501299 -0.0120496 0)
(-0.0478066 -0.0125785 0)
(-0.0453878 -0.0130291 0)
(-0.0428882 -0.0133967 0)
(-0.0403229 -0.0136773 0)
(-0.0377078 -0.0138669 0)
(-0.0350594 -0.0139622 0)
(-0.0323948 -0.0139603 0)
(-0.0297314 -0.0138592 0)
(-0.0270868 -0.0136572 0)
(-0.0244789 -0.0133538 0)
(-0.0219254 -0.0129492 0)
(-0.019444 -0.0124447 0)
(-0.0170519 -0.0118428 0)
(-0.0147658 -0.0111473 0)
(-0.0126016 -0.0103639 0)
(-0.0105742 -0.0094997 0)
(-0.00869742 -0.00856426 0)
(-0.00698348 -0.00756953 0)
(-0.00544301 -0.00653037 0)
(-0.00408478 -0.00546507 0)
(-0.00291559 -0.00439592 0)
(-0.00194021 -0.00334991 0)
(-0.00116084 -0.00235951 0)
(-0.000576716 -0.00146334 0)
(-0.000192453 -0.000706955 0)
(-2.58565e-05 -0.000146757 0)
(-3.4124e-05 0.000296646 0)
(-0.00024457 0.00114266 0)
(-0.000720026 0.0021703 0)
(-0.0014301 0.00332208 0)
(-0.00236207 0.00455123 0)
(-0.00351132 0.00581798 0)
(-0.0048708 0.0070889 0)
(-0.00643135 0.00833632 0)
(-0.00818245 0.0095376 0)
(-0.0101122 0.0106744 0)
(-0.0122072 0.0117321 0)
(-0.0144531 0.0126991 0)
(-0.0168343 0.0135669 0)
(-0.0193345 0.0143288 0)
(-0.0219366 0.0149803 0)
(-0.024623 0.0155186 0)
(-0.0273761 0.0159422 0)
(-0.0301776 0.0162508 0)
(-0.0330097 0.0164451 0)
(-0.0358544 0.0165267 0)
(-0.0386941 0.0164977 0)
(-0.0415115 0.0163611 0)
(-0.0442896 0.0161201 0)
(-0.0470122 0.0157786 0)
(-0.0496634 0.0153407 0)
(-0.0522281 0.0148109 0)
(-0.0546919 0.0141938 0)
(-0.057041 0.0134943 0)
(-0.0592626 0.0127177 0)
(-0.0613445 0.011869 0)
(-0.0632756 0.0109539 0)
(-0.0650454 0.00997779 0)
(-0.0666447 0.0089464 0)
(-0.0680647 0.00786552 0)
(-0.069298 0.00674105 0)
(-0.0703381 0.005579 0)
(-0.0711791 0.00438547 0)
(-0.0718167 0.00316667 0)
(-0.0722472 0.00192891 0)
(-0.072468 0.000678583 0)
(-0.0724776 -0.000577823 0)
(-0.0722757 -0.00183373 0)
(-0.0718628 -0.00308249 0)
(-0.0712407 -0.00431738 0)
(-0.0704122 -0.0055316 0)
(-0.0693812 -0.00671834 0)
(-0.0681527 -0.00787072 0)
(-0.066733 -0.00898189 0)
(-0.0651292 -0.010045 0)
(-0.0633496 -0.0110532 0)
(-0.0614036 -0.0119998 0)
(-0.0593018 -0.0128781 0)
(-0.0570557 -0.0136818 0)
(-0.0546777 -0.0144044 0)
(-0.0521814 -0.0150399 0)
(-0.0495812 -0.0155827 0)
(-0.0468924 -0.0160273 0)
(-0.0441311 -0.0163687 0)
(-0.0413141 -0.0166024 0)
(-0.0384589 -0.0167246 0)
(-0.0355834 -0.0167319 0)
(-0.0327061 -0.0166219 0)
(-0.0298457 -0.0163928 0)
(-0.0270211 -0.0160439 0)
(-0.024251 -0.0155755 0)
(-0.0215543 -0.0149892 0)
(-0.0189494 -0.014288 0)
(-0.0164539 -0.0134764 0)
(-0.0140851 -0.0125607 0)
(-0.0118592 -0.0115494 0)
(-0.00979104 -0.0104532 0)
(-0.00789447 -0.00928554 0)
(-0.0061816 -0.00806295 0)
(-0.00466293 -0.00680556 0)
(-0.00334721 -0.00553758 0)
(-0.00224151 -0.0042879 0)
(-0.00135055 -0.0030908 0)
(-0.00067634 -0.00198642 0)
(-0.000228121 -0.00102133 0)
(-3.13613e-05 -0.000252063 0)
(-3.95511e-05 0.000428457 0)
(-0.000280099 0.00152853 0)
(-0.000819712 0.00280232 0)
(-0.00162039 0.00419286 0)
(-0.00266472 0.00565308 0)
(-0.00394515 0.00714238 0)
(-0.00545186 0.00862623 0)
(-0.00717324 0.0100757 0)
(-0.0090966 0.0114668 0)
(-0.0112081 0.01278 0)
(-0.0134929 0.0139993 0)
(-0.0159348 0.0151124 0)
(-0.0185171 0.0161096 0)
(-0.0212222 0.0169836 0)
(-0.0240318 0.0177295 0)
(-0.0269273 0.0183439 0)
(-0.0298899 0.0188251 0)
(-0.0329006 0.0191729 0)
(-0.0359403 0.0193879 0)
(-0.0389904 0.019472 0)
(-0.0420321 0.0194276 0)
(-0.0450474 0.0192579 0)
(-0.0480186 0.0189669 0)
(-0.0509284 0.0185589 0)
(-0.0537603 0.0180387 0)
(-0.0564984 0.0174113 0)
(-0.0591275 0.0166822 0)
(-0.0616334 0.0158571 0)
(-0.0640025 0.014942 0)
(-0.0662221 0.013943 0)
(-0.0682803 0.0128664 0)
(-0.0701665 0.0117187 0)
(-0.0718705 0.0105065 0)
(-0.0733836 0.0092365 0)
(-0.0746978 0.00791569 0)
(-0.0758062 0.00655104 0)
(-0.0767028 0.00514967 0)
(-0.0773828 0.00371884 0)
(-0.0778425 0.00226588 0)
(-0.0780792 0.000798287 0)
(-0.0780913 -0.000676385 0)
(-0.0778782 -0.00215046 0)
(-0.0774408 -0.00361618 0)
(-0.0767807 -0.0050657 0)
(-0.0759009 -0.00649111 0)
(-0.0748055 -0.00788445 0)
(-0.0734998 -0.00923773 0)
(-0.07199 -0.0105429 0)
(-0.0702839 -0.0117921 0)
(-0.0683901 -0.0129773 0)
(-0.0663184 -0.0140907 0)
(-0.0640798 -0.0151246 0)
(-0.0616864 -0.0160714 0)
(-0.0591513 -0.0169239 0)
(-0.0564887 -0.017675 0)
(-0.0537135 -0.0183181 0)
(-0.050842 -0.0188469 0)
(-0.0478909 -0.0192556 0)
(-0.044878 -0.0195391 0)
(-0.0418215 -0.0196929 0)
(-0.0387403 -0.0197131 0)
(-0.0356539 -0.0195969 0)
(-0.0325819 -0.0193423 0)
(-0.0295443 -0.0189486 0)
(-0.0265609 -0.018416 0)
(-0.0236515 -0.0177464 0)
(-0.0208357 -0.0169432 0)
(-0.0181325 -0.0160116 0)
(-0.0155603 -0.0149587 0)
(-0.0131364 -0.0137938 0)
(-0.0108775 -0.012529 0)
(-0.00879854 -0.011179 0)
(-0.00691351 -0.00976188 0)
(-0.00523472 -0.00829942 0)
(-0.003773 -0.00681745 0)
(-0.00253776 -0.00534648 0)
(-0.0015363 -0.00392222 0)
(-0.000773362 -0.00258593 0)
(-0.000262577 -0.0013848 0)
(-3.65888e-05 -0.000375141 0)
(-4.47209e-05 0.000577929 0)
(-0.00031438 0.00196344 0)
(-0.000916489 0.0035109 0)
(-0.00180592 0.00516408 0)
(-0.00296082 0.00687589 0)
(-0.00437079 0.00860529 0)
(-0.00602329 0.010317 0)
(-0.00790419 0.011981 0)
(-0.00999857 0.0135725 0)
(-0.0122907 0.0150707 0)
(-0.0147638 0.0164588 0)
(-0.0174003 0.0177234 0)
(-0.0201819 0.0188543 0)
(-0.0230898 0.0198435 0)
(-0.0261045 0.0206855 0)
(-0.0292063 0.0213768 0)
(-0.0323753 0.0219155 0)
(-0.0355914 0.0223013 0)
(-0.0388349 0.0225349 0)
(-0.0420859 0.0226185 0)
(-0.0453251 0.0225548 0)
(-0.0485334 0.0223475 0)
(-0.0516925 0.0220011 0)
(-0.0547843 0.0215203 0)
(-0.0577916 0.0209107 0)
(-0.0606978 0.0201782 0)
(-0.0634872 0.0193289 0)
(-0.0661448 0.0183693 0)
(-0.0686564 0.0173063 0)
(-0.0710089 0.0161469 0)
(-0.07319 0.0148983 0)
(-0.0751884 0.013568 0)
(-0.0769937 0.0121636 0)
(-0.0785967 0.0106928 0)
(-0.0799891 0.00916359 0)
(-0.0811636 0.00758396 0)
(-0.0821141 0.00596212 0)
(-0.0828356 0.00430642 0)
(-0.0833242 0.00262529 0)
(-0.0835769 0.000927332 0)
(-0.0835921 -0.000778765 0)
(-0.0833693 -0.00248419 0)
(-0.0829093 -0.00418001 0)
(-0.0822137 -0.00585724 0)
(-0.0812856 -0.00750678 0)
(-0.0801292 -0.0091195 0)
(-0.07875 -0.0106862 0)
(-0.0771546 -0.0121978 0)
(-0.0753509 -0.013645 0)
(-0.0733478 -0.0150187 0)
(-0.0711556 -0.0163101 0)
(-0.0687856 -0.0175101 0)
(-0.0662505 -0.0186103 0)
(-0.0635637 -0.0196022 0)
(-0.0607402 -0.0204778 0)
(-0.0577956 -0.0212294 0)
(-0.0547466 -0.0218499 0)
(-0.0516108 -0.0223327 0)
(-0.0484067 -0.0226719 0)
(-0.0451534 -0.0228623 0)
(-0.0418706 -0.0228995 0)
(-0.0385788 -0.0227803 0)
(-0.0352984 -0.0225025 0)
(-0.0320505 -0.022065 0)
(-0.028856 -0.0214683 0)
(-0.0257359 -0.0207144 0)
(-0.0227108 -0.019807 0)
(-0.0198009 -0.0187519 0)
(-0.0170259 -0.0175569 0)
(-0.0144048 -0.0162323 0)
(-0.0119553 -0.0147911 0)
(-0.00969436 -0.0132495 0)
(-0.00763757 -0.0116267 0)
(-0.00579921 -0.00994604 0)
(-0.00419227 -0.00823468 0)
(-0.00282857 -0.00652451 0)
(-0.00171794 -0.00485238 0)
(-0.000867795 -0.00326038 0)
(-0.000295882 -0.00179608 0)
(-4.15694e-05 -0.000515343 0)
(-4.96654e-05 0.000744422 0)
(-0.000347511 0.00244599 0)
(-0.0010105 0.00429425 0)
(-0.00198681 0.00623384 0)
(-0.00325038 0.00821785 0)
(-0.0047881 0.010205 0)
(-0.00658475 0.0121596 0)
(-0.00862367 0.0140509 0)
(-0.0108877 0.0158533 0)
(-0.0133591 0.0175451 0)
(-0.0160192 0.019109 0)
(-0.0188488 0.0205306 0)
(-0.0218282 0.0217991 0)
(-0.0249372 0.0229062 0)
(-0.0281549 0.023846 0)
(-0.0314607 0.0246146 0)
(-0.0348334 0.0252103 0)
(-0.0382521 0.0256325 0)
(-0.041696 0.0258824 0)
(-0.0451445 0.0259622 0)
(-0.0485774 0.0258752 0)
(-0.0519749 0.0256254 0)
(-0.0553177 0.0252178 0)
(-0.0585872 0.0246581 0)
(-0.0617656 0.0239522 0)
(-0.0648356 0.0231069 0)
(-0.0677809 0.0221291 0)
(-0.0705859 0.0210263 0)
(-0.073236 0.0198062 0)
(-0.0757176 0.0184766 0)
(-0.0780179 0.0170459 0)
(-0.0801252 0.0155224 0)
(-0.0820289 0.0139148 0)
(-0.0837192 0.0122319 0)
(-0.0851877 0.0104826 0)
(-0.0864267 0.00867611 0)
(-0.08743 0.00682171 0)
(-0.0881922 0.00492885 0)
(-0.0887094 0.00300712 0)
(-0.0889785 0.00106624 0)
(-0.0889977 -0.000883893 0)
(-0.0887666 -0.0028333 0)
(-0.0882857 -0.00477187 0)
(-0.0875569 -0.00668939 0)
(-0.0865833 -0.00857555 0)
(-0.0853691 -0.01042 0)
(-0.0839201 -0.0122123 0)
(-0.0822429 -0.0139421 0)
(-0.0803456 -0.015599 0)
(-0.0782376 -0.0171727 0)
(-0.0759294 -0.0186529 0)