/*--------------------------------*- C++ -*----------------------------------*\
  =========                 |
  \\      /  F ield         | OpenFOAM: The Open Source CFD Toolbox
   \\    /   O peration     | Website:  https://openfoam.org
    \\  /    A nd           | Version:  7
     \\/     M anipulation  |
\*---------------------------------------------------------------------------*/
FoamFile
{
    version     2.0;
    format      ascii;
    class       surfaceScalarField;
    location    "0.0875";
    object      phi;
}
// * * * * * * * * * * * * * * * * * * * * * * * * * * * * * * * * * * * * * //

dimensions      [0 3 -1 0 0 0 0];

internalField   nonuniform List<scalar> 
50880
(
6.0809e-12
-6.08814e-12
3.50722e-11
-2.89975e-11
7.66677e-11
-4.15926e-11
1.21919e-10
-4.5256e-11
1.64422e-10
-4.2499e-11
1.99737e-10
-3.53116e-11
2.24718e-10
-2.49819e-11
2.37252e-10
-1.25346e-11
2.35927e-10
1.32564e-12
2.19863e-10
1.60647e-11
1.88509e-10
3.13512e-11
1.41594e-10
4.69128e-11
7.90406e-11
6.2553e-11
9.31803e-13
7.81043e-11
-9.25141e-11
9.34512e-11
-2.01004e-10
1.08484e-10
-3.2418e-10
1.23178e-10
-4.61628e-10
1.37444e-10
-6.12873e-10
1.51247e-10
-7.7739e-10
1.64514e-10
-9.54625e-10
1.77234e-10
-1.144e-09
1.89373e-10
-1.34492e-09
2.00923e-10
-1.55675e-09
2.11835e-10
-1.77887e-09
2.2212e-10
-2.0106e-09
2.31735e-10
-2.25131e-09
2.40701e-10
-2.50029e-09
2.48987e-10
-2.7569e-09
2.56603e-10
-3.02046e-09
2.63565e-10
-3.29033e-09
2.69868e-10
-3.56584e-09
2.75513e-10
-3.84638e-09
2.80533e-10
-4.13129e-09
2.84921e-10
-4.41997e-09
2.88677e-10
-4.7118e-09
2.91834e-10
-5.00618e-09
2.94378e-10
-5.3025e-09
2.96315e-10
-5.60017e-09
2.97671e-10
-5.89864e-09
2.98463e-10
-6.19733e-09
2.98687e-10
-6.4957e-09
2.98367e-10
-6.79322e-09
2.97528e-10
-7.08939e-09
2.96165e-10
-7.38368e-09
2.94286e-10
-7.6756e-09
2.91923e-10
-7.96468e-09
2.89083e-10
-8.25044e-09
2.85764e-10
-8.53242e-09
2.8198e-10
-8.81017e-09
2.77747e-10
-9.08324e-09
2.73075e-10
-9.35122e-09
2.67978e-10
-9.61369e-09
2.62472e-10
-9.87027e-09
2.56577e-10
-1.01206e-08
2.50297e-10
-1.03642e-08
2.4364e-10
-1.06008e-08
2.36619e-10
-1.08301e-08
2.2925e-10
-1.10516e-08
2.21548e-10
-1.12652e-08
2.13522e-10
-1.14703e-08
2.05185e-10
-1.16669e-08
1.96558e-10
-1.18545e-08
1.87653e-10
-1.2033e-08
1.78482e-10
-1.22021e-08
1.69056e-10
-1.23615e-08
1.59392e-10
-1.2511e-08
1.49509e-10
-1.26504e-08
1.39419e-10
-1.27795e-08
1.29132e-10
-1.28982e-08
1.18663e-10
-1.30062e-08
1.0803e-10
-1.31035e-08
9.72506e-11
-1.31898e-08
8.63356e-11
-1.32651e-08
7.52919e-11
-1.33292e-08
6.41348e-11
-1.33821e-08
5.28824e-11
-1.34237e-08
4.15461e-11
-1.34538e-08
3.01379e-11
-1.34725e-08
1.86768e-11
-1.34797e-08
7.1787e-12
-1.34753e-08
-4.34416e-12
-1.34595e-08
-1.5875e-11
-1.34321e-08
-2.73972e-11
-1.33932e-08
-3.8899e-11
-1.33428e-08
-5.03638e-11
-1.3281e-08
-6.17688e-11
-1.32079e-08
-7.30983e-11
-1.31236e-08
-8.43444e-11
-1.30281e-08
-9.54939e-11
-1.29216e-08
-1.06526e-10
-1.28041e-08
-1.17424e-10
-1.2676e-08
-1.28172e-10
-1.25372e-08
-1.38759e-10
-1.2388e-08
-1.49167e-10
-1.22287e-08
-1.59382e-10
-1.20593e-08
-1.69391e-10
-1.18801e-08
-1.7918e-10
-1.16914e-08
-1.88731e-10
-1.14933e-08
-1.98028e-10
-1.12863e-08
-2.07052e-10
-1.10705e-08
-2.15787e-10
-1.08463e-08
-2.24212e-10
-1.0614e-08
-2.32309e-10
-1.03739e-08
-2.40063e-10
-1.01265e-08
-2.4746e-10
-9.87198e-09
-2.54479e-10
-9.61088e-09
-2.61102e-10
-9.34357e-09
-2.6731e-10
-9.07048e-09
-2.73091e-10
-8.79205e-09
-2.78432e-10
-8.50873e-09
-2.83319e-10
-8.22099e-09
-2.87734e-10
-7.92933e-09
-2.91663e-10
-7.63424e-09
-2.95091e-10
-7.33624e-09
-2.98001e-10
-7.03586e-09
-3.00378e-10
-6.73365e-09
-3.02211e-10
-6.43016e-09
-3.0349e-10
-6.12595e-09
-3.04205e-10
-5.82161e-09
-3.04345e-10
-5.5177e-09
-3.039e-10
-5.21484e-09
-3.02864e-10
-4.91361e-09
-3.01226e-10
-4.61464e-09
-2.98974e-10
-4.31854e-09
-2.96094e-10
-4.02597e-09
-2.9257e-10
-3.73758e-09
-2.88392e-10
-3.45403e-09
-2.83554e-10
-3.17597e-09
-2.78053e-10
-2.90409e-09
-2.71884e-10
-2.63905e-09
-2.65043e-10
-2.38152e-09
-2.57529e-10
-2.13218e-09
-2.49339e-10
-1.8917e-09
-2.4048e-10
-1.66075e-09
-2.30956e-10
-1.43997e-09
-2.20775e-10
-1.23003e-09
-2.09946e-10
-1.03154e-09
-1.98482e-10
-8.4514e-10
-1.86404e-10
-6.714e-10
-1.7374e-10
-5.10881e-10
-1.60519e-10
-3.64111e-10
-1.4677e-10
-2.31585e-10
-1.32526e-10
-1.13761e-10
-1.17825e-10
-1.10439e-11
-1.02718e-10
7.6223e-11
-8.72677e-11
1.47778e-10
-7.15564e-11
2.03461e-10
-5.56831e-11
2.43238e-10
-3.97779e-11
2.67249e-10
-2.40112e-11
2.75854e-10
-8.60577e-12
2.69712e-10
6.1421e-12
2.4988e-10
1.98327e-11
2.17959e-10
3.19213e-11
1.76307e-10
4.16514e-11
1.28343e-10
4.79654e-11
7.8924e-11
4.9418e-11
3.48928e-11
4.40304e-11
5.66021e-12
2.92315e-11
5.65926e-12
3.03909e-11
-3.6485e-11
1.00167e-10
-9.87606e-11
1.90197e-10
-1.31621e-10
2.84413e-10
-1.39472e-10
3.69649e-10
-1.27732e-10
4.35453e-10
-1.01121e-10
4.73976e-10
-6.35074e-11
4.79416e-10
-1.79703e-11
4.47624e-10
3.31142e-11
3.75754e-10
8.79383e-11
2.61947e-10
1.45155e-10
1.05164e-10
2.03701e-10
-9.50573e-11
2.62777e-10
-3.38683e-10
3.21732e-10
-6.25311e-10
3.80079e-10
-9.5425e-10
4.37425e-10
-1.32453e-09
4.93457e-10
-1.73502e-09
5.47936e-10
-2.18438e-09
6.00616e-10
-2.67123e-09
6.51365e-10
-3.19401e-09
7.00016e-10
-3.7511e-09
7.46458e-10
-4.3408e-09
7.90623e-10
-4.96138e-09
8.32407e-10
-5.61104e-09
8.71772e-10
-6.28794e-09
9.08643e-10
-6.99026e-09
9.43025e-10
-7.71612e-09
9.74846e-10
-8.46368e-09
1.00416e-09
-9.23106e-09
1.03095e-09
-1.00164e-08
1.05523e-09
-1.08179e-08
1.07704e-09
-1.16338e-08
1.09639e-09
-1.24622e-08
1.11331e-09
-1.33013e-08
1.12783e-09
-1.41495e-08
1.13999e-09
-1.50049e-08
1.1498e-09
-1.58659e-08
1.15731e-09
-1.67308e-08
1.16257e-09
-1.75979e-08
1.16561e-09
-1.84657e-08
1.16647e-09
-1.93326e-08
1.16522e-09
-2.01969e-08
1.1619e-09
-2.10573e-08
1.15655e-09
-2.19123e-08
1.14923e-09
-2.27603e-08
1.13998e-09
-2.36001e-08
1.12886e-09
-2.44302e-08
1.11588e-09
-2.52493e-08
1.1011e-09
-2.60562e-08
1.08457e-09
-2.68494e-08
1.06634e-09
-2.76279e-08
1.04645e-09
-2.83904e-08
1.02497e-09
-2.91358e-08
1.00195e-09
-2.98629e-08
9.77426e-10
-3.05707e-08
9.51444e-10
-3.12581e-08
9.24053e-10
-3.19242e-08
8.95309e-10
-3.25679e-08
8.65262e-10
-3.31883e-08
8.33961e-10
-3.37846e-08
8.01459e-10
-3.43559e-08
7.67815e-10
-3.49013e-08
7.33081e-10
-3.54201e-08
6.97308e-10
-3.59116e-08
6.60548e-10
-3.63751e-08
6.22859e-10
-3.68099e-08
5.843e-10
-3.72154e-08
5.4492e-10
-3.7591e-08
5.0477e-10
-3.79363e-08
4.6391e-10
-3.82506e-08
4.224e-10
-3.85337e-08
3.80292e-10
-3.8785e-08
3.37639e-10
-3.90042e-08
2.94494e-10
-3.91909e-08
2.5091e-10
-3.9345e-08
2.06942e-10
-3.94661e-08
1.62648e-10
-3.95541e-08
1.18083e-10
-3.96087e-08
7.33009e-11
-3.96299e-08
2.83684e-11
-3.96176e-08
-1.6653e-11
-3.95717e-08
-6.17098e-11
-3.94924e-08
-1.06745e-10
-3.93796e-08
-1.51696e-10
-3.92334e-08
-1.96498e-10
-3.90541e-08
-2.41088e-10
-3.88418e-08
-2.85405e-10
-3.85968e-08
-3.29389e-10
-3.83193e-08
-3.72979e-10
-3.80097e-08
-4.16116e-10
-3.76684e-08
-4.58738e-10
-3.72958e-08
-5.00784e-10
-3.68923e-08
-5.4219e-10
-3.64586e-08
-5.82899e-10
-3.59951e-08
-6.22848e-10
-3.55025e-08
-6.61972e-10
-3.49815e-08
-7.00213e-10
-3.44327e-08
-7.37509e-10
-3.3857e-08
-7.73799e-10
-3.3255e-08
-8.09011e-10
-3.26277e-08
-8.43076e-10
-3.1976e-08
-8.75926e-10
-3.13008e-08
-9.07496e-10
-3.06032e-08
-9.37722e-10
-2.98841e-08
-9.66537e-10
-2.91447e-08
-9.93875e-10
-2.83861e-08
-1.01967e-09
-2.76096e-08
-1.04386e-09
-2.68163e-08
-1.06638e-09
-2.60075e-08
-1.08718e-09
-2.51846e-08
-1.1062e-09
-2.4349e-08
-1.12338e-09
-2.3502e-08
-1.13866e-09
-2.26451e-08
-1.15199e-09
-2.17798e-08
-1.1633e-09
-2.09076e-08
-1.17255e-09
-2.00301e-08
-1.17969e-09
-1.9149e-08
-1.18466e-09
-1.82657e-08
-1.18744e-09
-1.73821e-08
-1.18797e-09
-1.64998e-08
-1.18622e-09
-1.56205e-08
-1.18216e-09
-1.4746e-08
-1.17574e-09
-1.3878e-08
-1.16692e-09
-1.30185e-08
-1.15567e-09
-1.21691e-08
-1.14194e-09
-1.13318e-08
-1.1257e-09
-1.05084e-08
-1.10693e-09
-9.70082e-09
-1.08562e-09
-8.91095e-09
-1.06175e-09
-8.14068e-09
-1.03532e-09
-7.39189e-09
-1.00632e-09
-6.66647e-09
-9.74761e-10
-5.96629e-09
-9.40657e-10
-5.29322e-09
-9.04033e-10
-4.64907e-09
-8.64926e-10
-4.03564e-09
-8.23379e-10
-3.45467e-09
-7.79453e-10
-2.90785e-09
-7.33224e-10
-2.39681e-09
-6.8479e-10
-1.92306e-09
-6.34264e-10
-1.48805e-09
-5.81778e-10
-1.0931e-09
-5.2748e-10
-7.39372e-10
-4.71552e-10
-4.27873e-10
-4.14216e-10
-1.59395e-10
-3.55745e-10
6.55337e-11
-2.96484e-10
2.46706e-10
-2.36856e-10
3.84322e-10
-1.77394e-10
4.79089e-10
-1.18779e-10
5.32359e-10
-6.18749e-11
5.46297e-10
-7.7971e-12
5.2412e-10
4.20088e-11
4.70381e-10
8.56578e-11
3.91341e-10
1.20689e-10
2.95394e-10
1.43911e-10
1.935e-10
1.5131e-10
9.94304e-11
1.38098e-10
2.92974e-11
9.93633e-11
3.49549e-11
4.64992e-11
-8.29813e-11
1.40899e-10
-1.93161e-10
2.5526e-10
-2.45976e-10
3.69022e-10
-2.53239e-10
4.65124e-10
-2.23831e-10
5.29503e-10
-1.65493e-10
5.51088e-10
-8.50934e-11
5.21348e-10
1.17654e-11
4.33948e-10
1.20515e-10
2.84352e-10
2.37537e-10
6.94801e-11
3.60027e-10
-2.12543e-10
4.8572e-10
-5.62647e-10
6.12878e-10
-9.81006e-10
7.4009e-10
-1.46712e-09
8.66197e-10
-2.02002e-09
9.90326e-10
-2.63832e-09
1.11175e-09
-3.32029e-09
1.2299e-09
-4.06394e-09
1.34427e-09
-4.86706e-09
1.45449e-09
-5.72724e-09
1.5602e-09
-6.64198e-09
1.66119e-09
-7.60857e-09
1.75722e-09
-8.62431e-09
1.84815e-09
-9.68636e-09
1.93383e-09
-1.07919e-08
2.01416e-09
-1.19379e-08
2.08907e-09
-1.31216e-08
2.15853e-09
-1.43399e-08
2.22251e-09
-1.559e-08
2.28103e-09
-1.68689e-08
2.33412e-09
-1.81737e-08
2.38181e-09
-1.95014e-08
2.42413e-09
-2.08493e-08
2.46115e-09
-2.22144e-08
2.49293e-09
-2.35939e-08
2.51951e-09
-2.49851e-08
2.54098e-09
-2.63852e-08
2.55741e-09
-2.77915e-08
2.5689e-09
-2.92014e-08
2.57552e-09
-3.06123e-08
2.57737e-09
-3.20217e-08
2.57457e-09
-3.3427e-08
2.56719e-09
-3.48258e-08
2.55534e-09
-3.62157e-08
2.53913e-09
-3.75943e-08
2.51866e-09
-3.89595e-08
2.49403e-09
-4.0309e-08
2.46534e-09
-4.16406e-08
2.43267e-09
-4.29521e-08
2.39615e-09
-4.42417e-08
2.35587e-09
-4.55072e-08
2.31195e-09
-4.67467e-08
2.26451e-09
-4.79584e-08
2.21364e-09
-4.91404e-08
2.15947e-09
-5.02911e-08
2.10208e-09
-5.14086e-08
2.0416e-09
-5.24914e-08
1.97813e-09
-5.3538e-08
1.91178e-09
-5.45467e-08
1.84267e-09
-5.55161e-08
1.77092e-09
-5.6445e-08
1.69665e-09
-5.73318e-08
1.61996e-09
-5.81755e-08
1.54097e-09
-5.89748e-08
1.4598e-09
-5.97285e-08
1.37658e-09
-6.04356e-08
1.29142e-09
-6.10951e-08
1.20444e-09
-6.17061e-08
1.11576e-09
-6.22677e-08
1.0255e-09
-6.27791e-08
9.33788e-10
-6.32396e-08
8.40745e-10
-6.36484e-08
7.46487e-10
-6.4005e-08
6.51132e-10
-6.43089e-08
5.54808e-10
-6.45596e-08
4.57637e-10
-6.47567e-08
3.59739e-10
-6.48999e-08
2.61239e-10
-6.49888e-08
1.62272e-10
-6.50234e-08
6.29659e-11
-6.50036e-08
-3.65515e-11
-6.49291e-08
-1.36146e-10
-6.48002e-08
-2.35685e-10
-6.46168e-08
-3.35038e-10
-6.43793e-08
-4.34072e-10
-6.40877e-08
-5.32646e-10
-6.37425e-08
-6.30622e-10
-6.3344e-08
-7.2787e-10
-6.28927e-08
-8.24254e-10
-6.23892e-08
-9.19632e-10
-6.18341e-08
-1.01387e-09
-6.1228e-08
-1.10682e-09
-6.05719e-08
-1.19837e-09
-5.98664e-08
-1.28836e-09
-5.91126e-08
-1.37666e-09
-5.83114e-08
-1.46313e-09
-5.7464e-08
-1.54763e-09
-5.65715e-08
-1.63002e-09
-5.56352e-08
-1.71015e-09
-5.46563e-08
-1.78789e-09
-5.36363e-08
-1.86308e-09
-5.25766e-08
-1.93558e-09
-5.14789e-08
-2.00524e-09
-5.03447e-08
-2.07192e-09
-4.91758e-08
-2.13548e-09
-4.79738e-08
-2.19578e-09
-4.67408e-08
-2.25268e-09
-4.54787e-08
-2.30603e-09
-4.41894e-08
-2.3557e-09
-4.2875e-08
-2.40157e-09
-4.15377e-08
-2.44351e-09
-4.01797e-08
-2.48138e-09
-3.88033e-08
-2.51506e-09
-3.74108e-08
-2.54443e-09
-3.60048e-08
-2.56938e-09
-3.45875e-08
-2.58977e-09
-3.31617e-08
-2.60552e-09
-3.17299e-08
-2.6165e-09
-3.02947e-08
-2.62264e-09
-2.88588e-08
-2.62384e-09
-2.7425e-08
-2.62e-09
-2.59961e-08
-2.61105e-09
-2.4575e-08
-2.5969e-09
-2.31644e-08
-2.57748e-09
-2.17673e-08
-2.55272e-09
-2.03868e-08
-2.52253e-09
-1.90256e-08
-2.48688e-09
-1.76868e-08
-2.44571e-09
-1.63734e-08
-2.39899e-09
-1.50885e-08
-2.3467e-09
-1.3835e-08
-2.28885e-09
-1.26158e-08
-2.22543e-09
-1.14341e-08
-2.15646e-09
-1.02928e-08
-2.082e-09
-9.19475e-09
-2.00209e-09
-8.14285e-09
-1.91683e-09
-7.13991e-09
-1.82632e-09
-6.18865e-09
-1.73071e-09
-5.2917e-09
-1.63017e-09
-4.45157e-09
-1.52492e-09
-3.67063e-09
-1.41521e-09
-2.95107e-09
-1.30134e-09
-2.29487e-09
-1.18367e-09
-1.70378e-09
-1.06265e-09
-1.17922e-09
-9.38773e-10
-7.22275e-10
-8.12695e-10
-3.33565e-10
-6.85194e-10
-1.31884e-11
-5.57232e-10
2.39414e-10
-4.29997e-10
4.25603e-10
-3.04967e-10
5.47725e-10
-1.83995e-10
6.09332e-10
-6.94048e-11
6.15473e-10
3.5869e-11
5.7301e-10
1.28123e-10
4.9099e-10
2.02707e-10
3.81043e-10
2.53858e-10
2.57708e-10
2.74645e-10
1.38586e-10
2.57219e-10
4.42538e-11
1.93694e-10
7.92074e-11
5.20143e-11
-1.34999e-10
1.53877e-10
-2.95025e-10
2.71107e-10
-3.63212e-10
3.79638e-10
-3.61769e-10
4.59834e-10
-3.04025e-10
4.95498e-10
-2.01159e-10
4.73497e-10
-6.30894e-11
3.83522e-10
1.01743e-10
2.17664e-10
2.86371e-10
-2.99201e-11
4.85118e-10
-3.63281e-10
6.93396e-10
-7.85077e-10
9.07515e-10
-1.29666e-09
1.12446e-09
-1.89843e-09
1.34186e-09
-2.58996e-09
1.55773e-09
-3.37013e-09
1.7705e-09
-4.23726e-09
1.97888e-09
-5.18915e-09
2.1818e-09
-6.22331e-09
2.37843e-09
-7.33686e-09
2.56803e-09
-8.52673e-09
2.75006e-09
-9.78957e-09
2.92403e-09
-1.11219e-08
3.08957e-09
-1.25202e-08
3.2464e-09
-1.39806e-08
3.39422e-09
-1.54994e-08
3.53294e-09
-1.70726e-08
3.66236e-09
-1.86966e-08
3.78245e-09
-2.03672e-08
3.89313e-09
-2.20806e-08
3.99443e-09
-2.38328e-08
4.08635e-09
-2.56199e-08
4.16893e-09
-2.74381e-08
4.24226e-09
-2.92833e-08
4.3064e-09
-3.11518e-08
4.36145e-09
-3.30398e-08
4.40751e-09
-3.49435e-08
4.44471e-09
-3.68593e-08
4.47316e-09
-3.87834e-08
4.49301e-09
-4.07123e-08
4.5044e-09
-4.26424e-08
4.50751e-09
-4.45703e-08
4.50248e-09
-4.64926e-08
4.48949e-09
-4.8406e-08
4.46871e-09
-5.03072e-08
4.44031e-09
-5.21929e-08
4.40446e-09
-5.40602e-08
4.36133e-09
-5.5906e-08
4.31111e-09
-5.77273e-08
4.25396e-09
-5.95212e-08
4.19008e-09
-6.1285e-08
4.11965e-09
-6.30159e-08
4.04285e-09
-6.47113e-08
3.95989e-09
-6.63686e-08
3.87095e-09
-6.79854e-08
3.77622e-09
-6.95592e-08
3.67588e-09
-7.10877e-08
3.57013e-09
-7.25687e-08
3.45916e-09
-7.40001e-08
3.34318e-09
-7.53798e-08
3.22236e-09
-7.67058e-08
3.09693e-09
-7.79763e-08
2.96708e-09
-7.91893e-08
2.83301e-09
-8.03433e-08
2.69492e-09
-8.14365e-08
2.55302e-09
-8.24674e-08
2.40751e-09
-8.34346e-08
2.25861e-09
-8.43367e-08
2.10652e-09
-8.51723e-08
1.95145e-09
-8.59405e-08
1.79361e-09
-8.66399e-08
1.63322e-09
-8.72696e-08
1.47048e-09
-8.78288e-08
1.30561e-09
-8.83165e-08
1.13883e-09
-8.8732e-08
9.70343e-10
-8.90747e-08
8.00371e-10
-8.93441e-08
6.29135e-10
-8.95397e-08
4.5685e-10
-8.96612e-08
2.8374e-10
-8.97083e-08
1.10037e-10
-8.96808e-08
-6.40278e-11
-8.95787e-08
-2.38234e-10
-8.9402e-08
-4.1235e-10
-8.91509e-08
-5.86136e-10
-8.88257e-08
-7.59354e-10
-8.84265e-08
-9.31774e-10
-8.7954e-08
-1.10316e-09
-8.74086e-08
-1.27327e-09
-8.6791e-08
-1.44186e-09
-8.61019e-08
-1.60869e-09
-8.53423e-08
-1.77352e-09
-8.4513e-08
-1.93612e-09
-8.36151e-08
-2.09622e-09
-8.26499e-08
-2.2536e-09
-8.16185e-08
-2.40801e-09
-8.05225e-08
-2.5592e-09
-7.93632e-08
-2.70692e-09
-7.81423e-08
-2.85093e-09
-7.68614e-08
-2.99098e-09
-7.55225e-08
-3.12681e-09
-7.41274e-08
-3.25818e-09
-7.26782e-08
-3.38482e-09
-7.11769e-08
-3.5065e-09
-6.96259e-08
-3.62297e-09
-6.80274e-08
-3.73397e-09
-6.63839e-08
-3.83927e-09
-6.46979e-08
-3.93861e-09
-6.29722e-08
-4.03177e-09
-6.12094e-08
-4.11851e-09
-5.94124e-08
-4.19859e-09
-5.75841e-08
-4.27181e-09
-5.57275e-08
-4.33793e-09
-5.38458e-08
-4.39674e-09
-5.19422e-08
-4.44803e-09
-5.002e-08
-4.4916e-09
-4.80825e-08
-4.52724e-09
-4.61333e-08
-4.55477e-09
-4.41758e-08
-4.57402e-09
-4.22136e-08
-4.5848e-09
-4.02505e-08
-4.58698e-09
-3.82901e-08
-4.58038e-09
-3.63363e-08
-4.56488e-09
-3.43928e-08
-4.54032e-09
-3.24637e-08
-4.5066e-09
-3.05529e-08
-4.46359e-09
-2.86642e-08
-4.41119e-09
-2.68018e-08
-4.34931e-09
-2.49696e-08
-4.2779e-09
-2.31716e-08
-4.19691e-09
-2.1412e-08
-4.10631e-09
-1.96948e-08
-4.00611e-09
-1.80239e-08
-3.89633e-09
-1.64033e-08
-3.77702e-09
-1.4837e-08
-3.64827e-09
-1.33289e-08
-3.5102e-09
-1.18828e-08
-3.36297e-09
-1.05023e-08
-3.20679e-09
-9.19112e-09
-3.04191e-09
-7.95263e-09
-2.86866e-09
-6.79013e-09
-2.68742e-09
-5.70667e-09
-2.49866e-09
-4.70509e-09
-2.30292e-09
-3.7879e-09
-2.10087e-09
-2.95727e-09
-1.89328e-09
-2.21494e-09
-1.6811e-09
-1.56215e-09
-1.46548e-09
-9.99558e-10
-1.24779e-09
-5.2707e-10
-1.02972e-09
-1.43754e-10
-8.13314e-10
1.52359e-10
-6.01082e-10
3.64472e-10
-3.96108e-10
4.97263e-10
-2.02195e-10
5.57164e-10
-2.4033e-11
5.52681e-10
1.32606e-10
4.9472e-10
2.60666e-10
3.96941e-10
3.51636e-10
2.76087e-10
3.95498e-10
1.52314e-10
3.80991e-10
4.98066e-11
2.962e-10
1.29013e-10
5.00567e-11
-1.85052e-10
1.44667e-10
-3.89631e-10
2.46441e-10
-4.64983e-10
3.29118e-10
-4.44445e-10
3.71447e-10
-3.46357e-10
3.5589e-10
-1.856e-10
2.6813e-10
2.46704e-11
9.67382e-11
2.73133e-10
-1.67243e-10
5.50356e-10
-5.30556e-10
8.48427e-10
-9.97993e-10
1.16083e-09
-1.57274e-09
1.48227e-09
-2.2566e-09
1.80832e-09
-3.05021e-09
2.13546e-09
-3.95317e-09
2.46069e-09
-4.96427e-09
2.7816e-09
-6.08164e-09
3.09625e-09
-7.30278e-09
3.40294e-09
-8.62475e-09
3.7004e-09
-1.00442e-08
3.98745e-09
-1.15573e-08
4.26323e-09
-1.31603e-08
4.52697e-09
-1.48488e-08
4.77811e-09
-1.66186e-08
5.01614e-09
-1.8465e-08
5.24069e-09
-2.03836e-08
5.45148e-09
-2.23695e-08
5.64827e-09
-2.4418e-08
5.83095e-09
-2.65242e-08
5.99941e-09
-2.86835e-08
6.15364e-09
-3.08908e-08
6.29365e-09
-3.31413e-08
6.41948e-09
-3.54303e-08
6.53122e-09
-3.77528e-08
6.62896e-09
-4.01042e-08
6.71284e-09
-4.24797e-08
6.78302e-09
-4.48747e-08
6.83966e-09
-4.72845e-08
6.88296e-09
-4.97046e-08
6.9131e-09
-5.21305e-08
6.93032e-09
-5.45578e-08
6.93483e-09
-5.69822e-08
6.92688e-09
-5.93994e-08
6.90672e-09
-6.18053e-08
6.8746e-09
-6.41958e-08
6.83078e-09
-6.65669e-08
6.77553e-09
-6.89147e-08
6.7091e-09
-7.12353e-08
6.63178e-09
-7.35252e-08
6.54382e-09
-7.57806e-08
6.44551e-09
-7.79981e-08
6.33714e-09
-8.01742e-08
6.21899e-09
-8.23057e-08
6.09135e-09
-8.43893e-08
5.95452e-09
-8.64218e-08
5.80878e-09
-8.84004e-08
5.65443e-09
-9.0322e-08
5.49176e-09
-9.21839e-08
5.32106e-09
-9.39834e-08
5.14265e-09
-9.57178e-08
4.95682e-09
-9.73848e-08
4.76388e-09
-9.89819e-08
4.56415e-09
-1.00507e-07
4.35792e-09
-1.01957e-07
4.1455e-09
-1.03332e-07
3.92723e-09
-1.04627e-07
3.7034e-09
-1.05843e-07
3.47435e-09
-1.06977e-07
3.24038e-09
-1.08027e-07
3.00182e-09
-1.08993e-07
2.75899e-09
-1.09872e-07
2.51223e-09
-1.10663e-07
2.26185e-09
-1.11366e-07
2.00819e-09
-1.11979e-07
1.75158e-09
-1.12501e-07
1.49235e-09
-1.12931e-07
1.23083e-09
-1.13269e-07
9.6736e-10
-1.13515e-07
7.02286e-10
-1.13667e-07
4.35956e-10
-1.13726e-07
1.68713e-10
-1.1369e-07
-9.9096e-11
-1.13562e-07
-3.67113e-10
-1.13339e-07
-6.3498e-10
-1.13023e-07
-9.02341e-10
-1.12613e-07
-1.16883e-09
-1.12111e-07
-1.43409e-09
-1.11516e-07
-1.69774e-09
-1.1083e-07
-1.95943e-09
-1.10053e-07
-2.21878e-09
-1.09187e-07
-2.47542e-09
-1.08231e-07
-2.72897e-09
-1.07188e-07
-2.97907e-09
-1.06059e-07
-3.22533e-09
-1.04845e-07
-3.46738e-09
-1.03548e-07
-3.70484e-09
-1.0217e-07
-3.93733e-09
-1.00713e-07
-4.16447e-09
-9.91778e-08
-4.38588e-09
-9.75676e-08
-4.60117e-09
-9.58845e-08
-4.80996e-09
-9.41308e-08
-5.01186e-09
-9.23091e-08
-5.2065e-09
-9.04221e-08
-5.39348e-09
-8.84727e-08
-5.57244e-09
-8.64636e-08
-5.74299e-09
-8.43981e-08
-5.90477e-09
-8.22794e-08
-6.0574e-09
-8.01106e-08
-6.20053e-09
-7.78953e-08
-6.33379e-09
-7.56371e-08
-6.45684e-09
-7.33395e-08
-6.56933e-09
-7.10066e-08
-6.67093e-09
-6.8642e-08
-6.76131e-09
-6.62499e-08
-6.84015e-09
-6.38343e-08
-6.90714e-09
-6.13996e-08
-6.96198e-09
-5.895e-08
-7.0044e-09
-5.64899e-08
-7.03411e-09
-5.40238e-08
-7.05086e-09
-5.15564e-08
-7.05442e-09
-4.90922e-08
-7.04454e-09
-4.6636e-08
-7.02102e-09
-4.41927e-08
-6.98366e-09
-4.1767e-08
-6.93228e-09
-3.93639e-08
-6.86671e-09
-3.69883e-08
-6.78682e-09
-3.46451e-08
-6.6925e-09
-3.23393e-08
-6.58365e-09
-3.0076e-08
-6.46023e-09
-2.78601e-08
-6.32222e-09
-2.56966e-08
-6.16963e-09
-2.35904e-08
-6.00251e-09
-2.15465e-08
-5.82098e-09
-1.95696e-08
-5.62517e-09
-1.76645e-08
-5.41529e-09
-1.58358e-08
-5.19161e-09
-1.40881e-08
-4.95447e-09
-1.24258e-08
-4.70429e-09
-1.08529e-08
-4.44157e-09
-9.37335e-09
-4.16693e-09
-7.99091e-09
-3.8811e-09
-6.70886e-09
-3.58497e-09
-5.53018e-09
-3.27955e-09
-4.45735e-09
-2.9661e-09
-3.49237e-09
-2.64609e-09
-2.63657e-09
-2.32128e-09
-1.89058e-09
-1.99379e-09
-1.25413e-09
-1.66617e-09
-7.25964e-10
-1.34148e-09
-3.0361e-10
-1.02344e-09
1.68046e-11
-7.16522e-10
2.40789e-10
-4.26179e-10
3.75751e-10
-1.58996e-10
4.31289e-10
7.70683e-11
4.19487e-10
2.72467e-10
3.5525e-10
4.15872e-10
2.56683e-10
4.94064e-10
1.45604e-10
4.92068e-10
4.85453e-11
3.93258e-10
1.77557e-10
4.28709e-11
-2.2792e-10
1.18907e-10
-4.65673e-10
1.90526e-10
-5.36595e-10
2.30561e-10
-4.84481e-10
2.17082e-10
-3.32874e-10
1.31884e-10
-1.00402e-10
-3.99367e-11
1.96493e-10
-3.10523e-10
5.43719e-10
-6.89315e-10
9.29153e-10
-1.18364e-09
1.34275e-09
-1.79881e-09
1.776e-09
-2.53838e-09
2.22184e-09
-3.40444e-09
2.67438e-09
-4.39774e-09
3.12877e-09
-5.518e-09
3.58095e-09
-6.76398e-09
4.02758e-09
-8.13357e-09
4.46583e-09
-9.62405e-09
4.89343e-09
-1.12321e-08
5.30844e-09
-1.29539e-08
5.70928e-09
-1.47853e-08
6.09464e-09
-1.67218e-08
6.46344e-09
-1.87585e-08
6.81482e-09
-2.08904e-08
7.14803e-09
-2.31123e-08
7.46258e-09
-2.54187e-08
7.75796e-09
-2.78044e-08
8.03391e-09
-3.02636e-08
8.29014e-09
-3.27907e-08
8.52656e-09
-3.53801e-08
8.74306e-09
-3.80261e-08
8.93966e-09
-4.0723e-08
9.11638e-09
-4.34651e-08
9.27332e-09
-4.62468e-08
9.41062e-09
-4.90624e-08
9.52843e-09
-5.19063e-08
9.62695e-09
-5.4773e-08
9.70641e-09
-5.76571e-08
9.76706e-09
-6.05532e-08
9.80918e-09
-6.3456e-08
9.83306e-09
-6.63601e-08
9.83902e-09
-6.92606e-08
9.82736e-09
-7.21523e-08
9.79844e-09
-7.50304e-08
9.75261e-09
-7.78898e-08
9.69022e-09
-8.07259e-08
9.61164e-09
-8.3534e-08
9.51725e-09
-8.63097e-08
9.40742e-09
-8.90484e-08
9.28254e-09
-9.17459e-08
9.143e-09
-9.4398e-08
8.9892e-09
-9.70005e-08
8.82154e-09
-9.95496e-08
8.64044e-09
-1.02041e-07
8.44629e-09
-1.04472e-07
8.23951e-09
-1.06838e-07
8.02052e-09
-1.09136e-07
7.78974e-09
-1.11363e-07
7.54759e-09
-1.13515e-07
7.29449e-09
-1.15589e-07
7.03087e-09
-1.17582e-07
6.75718e-09
-1.19492e-07
6.47383e-09
-1.21315e-07
6.18127e-09
-1.23049e-07
5.87995e-09
-1.24692e-07
5.5703e-09
-1.26242e-07
5.25279e-09
-1.27695e-07
4.92784e-09
-1.29051e-07
4.59592e-09
-1.30307e-07
4.25749e-09
-1.31461e-07
3.913e-09
-1.32511e-07
3.56292e-09
-1.33457e-07
3.20771e-09
-1.34297e-07
2.84784e-09
-1.35029e-07
2.48378e-09
-1.35653e-07
2.116e-09
-1.36167e-07
1.74498e-09
-1.36571e-07
1.37121e-09
-1.36863e-07
9.95157e-10
-1.37045e-07
6.17322e-10
-1.37114e-07
2.38205e-10
-1.37072e-07
-1.417e-10
-1.36917e-07
-5.21898e-10
-1.3665e-07
-9.01882e-10
-1.36271e-07
-1.28113e-09
-1.35781e-07
-1.65914e-09
-1.3518e-07
-2.03539e-09
-1.34468e-07
-2.40937e-09
-1.33647e-07
-2.78054e-09
-1.32717e-07
-3.14839e-09
-1.3168e-07
-3.51237e-09
-1.30537e-07
-3.87197e-09
-1.2929e-07
-4.22666e-09
-1.27939e-07
-4.57589e-09
-1.26487e-07
-4.91912e-09
-1.24936e-07
-5.25583e-09
-1.23288e-07
-5.58547e-09
-1.21545e-07
-5.90749e-09
-1.1971e-07
-6.22137e-09
-1.17784e-07
-6.52655e-09
-1.15772e-07
-6.8225e-09
-1.13675e-07
-7.10867e-09
-1.11497e-07
-7.38451e-09
-1.09241e-07
-7.64951e-09
-1.0691e-07
-7.90312e-09
-1.04509e-07
-8.14481e-09
-1.02039e-07
-8.37405e-09
-9.95063e-08
-8.59034e-09
-9.69137e-08
-8.79315e-09
-9.42655e-08
-8.982e-09
-9.15659e-08
-9.15639e-09
-8.88194e-08
-9.31583e-09
-8.60305e-08
-9.45985e-09
-8.32038e-08
-9.588e-09
-8.03441e-08
-9.69983e-09
-7.74563e-08
-9.7949e-09
-7.45455e-08
-9.8728e-09
-7.16168e-08
-9.93314e-09
-6.86753e-08
-9.97553e-09
-6.57266e-08
-9.99962e-09
-6.27759e-08
-1.00051e-08
-5.98289e-08
-9.99155e-09
-5.68912e-08
-9.95879e-09
-5.39683e-08
-9.90651e-09
-5.10661e-08
-9.83447e-09
-4.81904e-08
-9.74246e-09
-4.53469e-08
-9.63029e-09
-4.25416e-08
-9.49784e-09
-3.97802e-08
-9.34499e-09
-3.70687e-08
-9.1717e-09
-3.4413e-08
-8.97794e-09
-3.18189e-08
-8.76377e-09
-2.92921e-08
-8.52928e-09
-2.68385e-08
-8.27464e-09
-2.44635e-08
-8.00009e-09
-2.21729e-08
-7.70594e-09
-1.99719e-08
-7.3926e-09
-1.78658e-08
-7.06056e-09
-1.58597e-08
-6.71046e-09
-1.39582e-08
-6.34303e-09
-1.2166e-08
-5.95917e-09
-1.04871e-08
-5.55996e-09
-8.9254e-09
-5.14666e-09
-7.4842e-09
-4.72076e-09
-6.16627e-09
-4.28403e-09
-4.97377e-09
-3.83858e-09
-3.90815e-09
-3.38691e-09
-2.96998e-09
-2.93196e-09
-2.15887e-09
-2.47727e-09
-1.47331e-09
-2.02704e-09
-9.10469e-10
-1.58628e-09
-4.65998e-10
-1.16099e-09
-1.33831e-10
-7.58346e-10
9.40588e-11
-3.86888e-10
2.27928e-10
-5.68007e-11
2.8053e-10
2.19865e-10
2.67446e-10
4.28955e-10
2.07499e-10
5.5401e-10
1.23338e-10
5.76228e-10
4.24906e-11
4.74107e-10
2.20046e-10
3.21931e-11
-2.60113e-10
8.11645e-11
-5.14644e-10
1.11057e-10
-5.6649e-10
9.50801e-11
-4.68503e-10
1.1262e-11
-2.49054e-10
-1.58677e-10
6.95379e-11
-4.29768e-10
4.67589e-10
-8.14274e-10
9.28222e-10
-1.32201e-09
1.43688e-09
-1.96049e-09
1.98123e-09
-2.73526e-09
2.55077e-09
-3.6501e-09
3.13668e-09
-4.70725e-09
3.73153e-09
-5.90759e-09
4.3291e-09
-7.25079e-09
4.92415e-09
-8.73551e-09
5.5123e-09
-1.03596e-08
6.08989e-09
-1.212e-08
6.65384e-09
-1.40131e-08
7.20157e-09
-1.60348e-08
7.73099e-09
-1.81805e-08
8.24028e-09
-2.0445e-08
8.72798e-09
-2.28231e-08
9.1929e-09
-2.53091e-08
9.63406e-09
-2.78972e-08
1.00507e-08
-3.05814e-08
1.04421e-08
-3.33554e-08
1.08079e-08
-3.6213e-08
1.11478e-08
-3.91479e-08
1.14614e-08
-4.21535e-08
1.17487e-08
-4.52236e-08
1.20097e-08
-4.83514e-08
1.22443e-08
-5.15307e-08
1.24526e-08
-5.4755e-08
1.26348e-08
-5.80177e-08
1.27912e-08
-6.13126e-08
1.29219e-08
-6.46334e-08
1.30272e-08
-6.79737e-08
1.31074e-08
-7.13275e-08
1.31629e-08
-7.46885e-08
1.31941e-08
-7.80509e-08
1.32014e-08
-8.14087e-08
1.31851e-08
-8.47561e-08
1.31458e-08
-8.80873e-08
1.30839e-08
-9.13969e-08
1.29998e-08
-9.46793e-08
1.28941e-08
-9.79292e-08
1.27671e-08
-1.01141e-07
1.26196e-08
-1.04311e-07
1.24518e-08
-1.07432e-07
1.22645e-08
-1.10501e-07
1.2058e-08
-1.13512e-07
1.1833e-08
-1.16462e-07
1.15899e-08
-1.19345e-07
1.13294e-08
-1.22157e-07
1.10519e-08
-1.24895e-07
1.07581e-08
-1.27554e-07
1.04485e-08
-1.3013e-07
1.01236e-08
-1.32619e-07
9.784e-09
-1.35019e-07
9.43033e-09
-1.37325e-07
9.06315e-09
-1.39534e-07
8.68302e-09
-1.41643e-07
8.29054e-09
-1.43649e-07
7.8863e-09
-1.4555e-07
7.4709e-09
-1.47342e-07
7.04493e-09
-1.49023e-07
6.609e-09
-1.50591e-07
6.16373e-09
-1.52043e-07
5.7097e-09
-1.53378e-07
5.24756e-09
-1.54593e-07
4.77791e-09
-1.55687e-07
4.30138e-09
-1.56657e-07
3.8186e-09
-1.57504e-07
3.3302e-09
-1.58225e-07
2.83682e-09
-1.58819e-07
2.3391e-09
-1.59285e-07
1.83769e-09
-1.59623e-07
1.33323e-09
-1.59832e-07
8.26403e-10
-1.59912e-07
3.17853e-10
-1.59862e-07
-1.91752e-10
-1.59682e-07
-7.0173e-10
-1.59373e-07
-1.2114e-09
-1.58934e-07
-1.72008e-09
-1.58366e-07
-2.22709e-09
-1.57669e-07
-2.73173e-09
-1.56845e-07
-3.23329e-09
-1.55895e-07
-3.73109e-09
-1.54819e-07
-4.22441e-09
-1.53619e-07
-4.71253e-09
-1.52296e-07
-5.19476e-09
-1.50852e-07
-5.67037e-09
-1.4929e-07
-6.13866e-09
-1.4761e-07
-6.59888e-09
-1.45815e-07
-7.05033e-09
-1.43908e-07
-7.49228e-09
-1.41892e-07
-7.924e-09
-1.39769e-07
-8.34478e-09
-1.37541e-07
-8.75388e-09
-1.35213e-07
-9.15057e-09
-1.32788e-07
-9.53414e-09
-1.30268e-07
-9.90387e-09
-1.27659e-07
-1.0259e-08
-1.24963e-07
-1.05989e-08
-1.22185e-07
-1.09229e-08
-1.19329e-07
-1.12301e-08
-1.16399e-07
-1.152e-08
-1.134e-07
-1.17918e-08
-1.10337e-07
-1.2045e-08
-1.07215e-07
-1.22788e-08
-1.04038e-07
-1.24926e-08
-1.00812e-07
-1.26857e-08
-9.75428e-08
-1.28576e-08
-9.4235e-08
-1.30077e-08
-9.08944e-08
-1.31354e-08
-8.75271e-08
-1.32402e-08
-8.41388e-08
-1.33214e-08
-8.07356e-08
-1.33787e-08
-7.73236e-08
-1.34116e-08
-7.39091e-08
-1.34196e-08
-7.04984e-08
-1.34023e-08
-6.70979e-08
-1.33593e-08
-6.37141e-08
-1.32903e-08
-6.03537e-08
-1.31949e-08
-5.70231e-08
-1.3073e-08
-5.37292e-08
-1.29243e-08
-5.04785e-08
-1.27485e-08
-4.72777e-08
-1.25457e-08
-4.41336e-08
-1.23158e-08
-4.10528e-08
-1.20587e-08
-3.8042e-08
-1.17746e-08
-3.51077e-08
-1.14636e-08
-3.22564e-08
-1.11259e-08
-2.94946e-08
-1.0762e-08
-2.68283e-08
-1.03722e-08
-2.42638e-08
-9.95713e-09
-2.18068e-08
-9.51752e-09
-1.94631e-08
-9.0542e-09
-1.72379e-08
-8.56821e-09
-1.51363e-08
-8.06079e-09
-1.31628e-08
-7.53339e-09
-1.13218e-08
-6.98773e-09
-9.6167e-09
-6.42583e-09
-8.05066e-09
-5.85007e-09
-6.62598e-09
-5.26326e-09
-5.34418e-09
-4.6687e-09
-4.20586e-09
-4.07028e-09
-3.21056e-09
-3.47258e-09
-2.35659e-09
-2.88101e-09
-1.6409e-09
-2.30197e-09
-1.05888e-09
-1.74301e-09
-6.0415e-10
-1.21307e-09
-2.6836e-10
-7.22679e-10
-4.09492e-11
-2.84212e-10
9.11058e-11
8.78105e-11
1.43602e-10
3.76459e-10
1.35516e-10
5.62095e-10
8.95671e-11
6.22175e-10
3.31055e-11
5.30568e-10
2.53151e-10
1.91691e-11
-2.79286e-10
3.49368e-11
-5.30405e-10
1.43259e-11
-5.45884e-10
-6.8257e-11
-3.8592e-10
-2.34106e-10
-8.32043e-11
-5.00988e-10
3.36418e-10
-8.83798e-10
8.50399e-10
-1.39461e-09
1.43903e-09
-2.04314e-09
2.08542e-09
-2.83689e-09
2.77499e-09
-3.78152e-09
3.49539e-09
-4.88078e-09
4.23594e-09
-6.13695e-09
4.9877e-09
-7.55088e-09
5.74303e-09
-9.1222e-09
6.49548e-09
-1.08495e-08
7.23959e-09
-1.27304e-08
7.97076e-09
-1.47616e-08
8.68509e-09
-1.69394e-08
9.37932e-09
-1.92591e-08
1.00507e-08
-2.17157e-08
1.06969e-08
-2.43039e-08
1.13161e-08
-2.70177e-08
1.19067e-08
-2.9851e-08
1.24674e-08
-3.27974e-08
1.2997e-08
-3.58502e-08
1.3495e-08
-3.90027e-08
1.39604e-08
-4.22479e-08
1.4393e-08
-4.55788e-08
1.47923e-08
-4.89882e-08
1.51582e-08
-5.24691e-08
1.54905e-08
-5.60142e-08
1.57893e-08
-5.96162e-08
1.60547e-08
-6.32681e-08
1.62867e-08
-6.69626e-08
1.64857e-08
-7.06927e-08
1.66519e-08
-7.44513e-08
1.67857e-08
-7.82313e-08
1.68875e-08
-8.2026e-08
1.69576e-08
-8.58284e-08
1.69965e-08
-8.96318e-08
1.70048e-08
-9.34296e-08
1.69829e-08
-9.72153e-08
1.69315e-08
-1.00982e-07
1.6851e-08
-1.04725e-07
1.67421e-08
-1.08436e-07
1.66054e-08
-1.12111e-07
1.64416e-08
-1.15742e-07
1.62511e-08
-1.19325e-07
1.60348e-08
-1.22854e-07
1.57932e-08
-1.26323e-07