/*--------------------------------*- C++ -*----------------------------------*\
  =========                 |
  \\      /  F ield         | OpenFOAM: The Open Source CFD Toolbox
   \\    /   O peration     | Website:  https://openfoam.org
    \\  /    A nd           | Version:  7
     \\/     M anipulation  |
\*---------------------------------------------------------------------------*/
FoamFile
{
    version     2.0;
    format      ascii;
    class       volVectorField;
    location    "0.0875";
    object      U;
}
// * * * * * * * * * * * * * * * * * * * * * * * * * * * * * * * * * * * * * //

dimensions      [0 1 -1 0 0 0 0];

internalField   nonuniform List<vector> 
25600
(
(1.84052e-07 -2.15636e-07 0)
(2.81028e-06 -1.68038e-06 0)
(8.65862e-06 -2.50781e-06 0)
(1.58971e-05 -2.77239e-06 0)
(2.30988e-05 -2.65026e-06 0)
(2.94589e-05 -2.28176e-06 0)
(3.43776e-05 -1.75663e-06 0)
(3.74452e-05 -1.13306e-06 0)
(3.83873e-05 -4.49333e-07 0)
(3.70284e-05 2.63705e-07 0)
(3.32518e-05 9.95163e-07 0)
(2.69993e-05 1.73256e-06 0)
(1.82438e-05 2.4666e-06 0)
(6.98682e-06 3.19201e-06 0)
(-6.74446e-06 3.90672e-06 0)
(-2.29097e-05 4.60309e-06 0)
(-4.14605e-05 5.2888e-06 0)
(-6.23252e-05 5.95118e-06 0)
(-8.54391e-05 6.59115e-06 0)
(-0.000110721 7.21007e-06 0)
(-0.000138079 7.80388e-06 0)
(-0.000167433 8.37056e-06 0)
(-0.00019868 8.91358e-06 0)
(-0.000231722 9.42712e-06 0)
(-0.000266465 9.90773e-06 0)
(-0.000302797 1.03627e-05 0)
(-0.000340617 1.0785e-05 0)
(-0.000379821 1.11747e-05 0)
(-0.000420293 1.15318e-05 0)
(-0.000461928 1.18604e-05 0)
(-0.000504631 1.21541e-05 0)
(-0.000548286 1.24174e-05 0)
(-0.000592792 1.26541e-05 0)
(-0.000638054 1.28595e-05 0)
(-0.000683967 1.30345e-05 0)
(-0.00073043 1.31828e-05 0)
(-0.000777351 1.33002e-05 0)
(-0.00082463 1.33868e-05 0)
(-0.000872171 1.34493e-05 0)
(-0.000919884 1.34899e-05 0)
(-0.000967679 1.35056e-05 0)
(-0.00101547 1.34968e-05 0)
(-0.00106316 1.34643e-05 0)
(-0.00111067 1.34046e-05 0)
(-0.00115793 1.33185e-05 0)
(-0.00120484 1.32113e-05 0)
(-0.00125134 1.30851e-05 0)
(-0.00129735 1.29388e-05 0)
(-0.00134279 1.27703e-05 0)
(-0.00138758 1.25803e-05 0)
(-0.00143166 1.237e-05 0)
(-0.00147496 1.21391e-05 0)
(-0.00151742 1.18895e-05 0)
(-0.00155896 1.16225e-05 0)
(-0.00159952 1.13379e-05 0)
(-0.00163905 1.10364e-05 0)
(-0.00167749 1.0717e-05 0)
(-0.00171477 1.03813e-05 0)
(-0.00175085 1.00314e-05 0)
(-0.00178566 9.66651e-06 0)
(-0.00181917 9.28702e-06 0)
(-0.00185132 8.89429e-06 0)
(-0.00188207 8.48872e-06 0)
(-0.00191137 8.07146e-06 0)
(-0.00193918 7.64295e-06 0)
(-0.00196547 7.20343e-06 0)
(-0.00199019 6.75463e-06 0)
(-0.00201331 6.29702e-06 0)
(-0.0020348 5.82992e-06 0)
(-0.00205463 5.35438e-06 0)
(-0.00207278 4.872e-06 0)
(-0.0020892 4.38354e-06 0)
(-0.0021039 3.8896e-06 0)
(-0.00211683 3.39005e-06 0)
(-0.00212799 2.88448e-06 0)
(-0.00213735 2.37399e-06 0)
(-0.00214491 1.86021e-06 0)
(-0.00215065 1.34362e-06 0)
(-0.00215456 8.24508e-07 0)
(-0.00215663 3.03868e-07 0)
(-0.00215685 -2.17416e-07 0)
(-0.00215524 -7.38851e-07 0)
(-0.00215177 -1.25995e-06 0)
(-0.00214647 -1.78018e-06 0)
(-0.00213933 -2.29866e-06 0)
(-0.00213035 -2.81412e-06 0)
(-0.00211956 -3.32551e-06 0)
(-0.00210696 -3.83245e-06 0)
(-0.00209257 -4.33478e-06 0)
(-0.0020764 -4.83202e-06 0)
(-0.00205848 -5.32335e-06 0)
(-0.00203883 -5.80784e-06 0)
(-0.00201747 -6.28469e-06 0)
(-0.00199443 -6.75338e-06 0)
(-0.00196973 -7.21352e-06 0)
(-0.00194342 -7.66472e-06 0)
(-0.00191553 -8.10647e-06 0)
(-0.00188609 -8.53806e-06 0)
(-0.00185513 -8.95859e-06 0)
(-0.00182272 -9.36713e-06 0)
(-0.00178888 -9.76286e-06 0)
(-0.00175367 -1.01449e-05 0)
(-0.00171713 -1.05123e-05 0)
(-0.00167933 -1.08642e-05 0)
(-0.00164031 -1.11996e-05 0)
(-0.00160014 -1.15181e-05 0)
(-0.00155888 -1.18187e-05 0)
(-0.00151659 -1.21004e-05 0)
(-0.00147334 -1.23625e-05 0)
(-0.0014292 -1.26046e-05 0)
(-0.00138424 -1.28261e-05 0)
(-0.00133854 -1.30266e-05 0)
(-0.00129217 -1.32051e-05 0)
(-0.00124521 -1.3361e-05 0)
(-0.00119774 -1.34933e-05 0)
(-0.00114985 -1.36013e-05 0)
(-0.00110162 -1.36847e-05 0)
(-0.00105314 -1.3743e-05 0)
(-0.00100451 -1.37757e-05 0)
(-0.000955799 -1.37824e-05 0)
(-0.000907116 -1.37626e-05 0)
(-0.000858551 -1.37163e-05 0)
(-0.0008102 -1.3643e-05 0)
(-0.00076216 -1.35422e-05 0)
(-0.000714529 -1.3413e-05 0)
(-0.000667411 -1.32541e-05 0)
(-0.000620908 -1.30641e-05 0)
(-0.000575127 -1.28428e-05 0)
(-0.000530172 -1.25903e-05 0)
(-0.000486152 -1.23066e-05 0)
(-0.000443172 -1.19915e-05 0)
(-0.000401341 -1.1644e-05 0)
(-0.000360765 -1.12637e-05 0)
(-0.000321554 -1.08508e-05 0)
(-0.000283814 -1.04065e-05 0)
(-0.00024765 -9.93107e-06 0)
(-0.000213169 -9.42471e-06 0)
(-0.000180471 -8.88764e-06 0)
(-0.000149657 -8.32067e-06 0)
(-0.000120823 -7.72538e-06 0)
(-9.40617e-05 -7.10354e-06 0)
(-6.94597e-05 -6.45621e-06 0)
(-4.70992e-05 -5.78423e-06 0)
(-2.70559e-05 -5.08861e-06 0)
(-9.39927e-06 -4.37071e-06 0)
(5.8098e-06 -3.63297e-06 0)
(1.85221e-05 -2.87832e-06 0)
(2.87026e-05 -2.11023e-06 0)
(3.63347e-05 -1.33387e-06 0)
(4.14256e-05 -5.5661e-07 0)
(4.40127e-05 2.11186e-07 0)
(4.41746e-05 9.55049e-07 0)
(4.20445e-05 1.65481e-06 0)
(3.78292e-05 2.28111e-06 0)
(3.18379e-05 2.78916e-06 0)
(2.45238e-05 3.11013e-06 0)
(1.65324e-05 3.14276e-06 0)
(8.78513e-06 2.73781e-06 0)
(2.70873e-06 1.70611e-06 0)
(1.6124e-07 1.60727e-07 0)
(1.86105e-06 -2.84923e-06 0)
(9.4024e-06 -9.09104e-06 0)
(2.27203e-05 -1.2532e-05 0)
(3.80914e-05 -1.35247e-05 0)
(5.2905e-05 -1.26467e-05 0)
(6.5337e-05 -1.04193e-05 0)
(7.3937e-05 -7.2139e-06 0)
(7.76451e-05 -3.34157e-06 0)
(7.56776e-05 9.91557e-07 0)
(6.74753e-05 5.61972e-06 0)
(5.26808e-05 1.04309e-05 0)
(3.1065e-05 1.53399e-05 0)
(2.51018e-06 2.02772e-05 0)
(-3.30016e-05 2.51939e-05 0)
(-7.54421e-05 3.00502e-05 0)
(-0.000124719 3.48119e-05 0)
(-0.000180696 3.94666e-05 0)
(-0.000243211 4.39851e-05 0)
(-0.000312049 4.83557e-05 0)
(-0.000387001 5.25602e-05 0)
(-0.000467836 5.65906e-05 0)
(-0.000554288 6.04372e-05 0)
(-0.000646098 6.40989e-05 0)
(-0.000742995 6.75547e-05 0)
(-0.00084468 7.08158e-05 0)
(-0.000950878 7.38653e-05 0)
(-0.00106129 7.67057e-05 0)
(-0.00117562 7.93348e-05 0)
(-0.00129356 8.17552e-05 0)
(-0.00141483 8.39622e-05 0)
(-0.00153912 8.59632e-05 0)
(-0.00166614 8.77598e-05 0)
(-0.00179561 8.93527e-05 0)
(-0.00192722 9.07457e-05 0)
(-0.00206069 9.19423e-05 0)
(-0.00219575 9.29442e-05 0)
(-0.0023321 9.37508e-05 0)
(-0.00246948 9.4367e-05 0)
(-0.00260762 9.47979e-05 0)
(-0.00274624 9.50469e-05 0)
(-0.0028851 9.51187e-05 0)
(-0.00302393 9.50192e-05 0)
(-0.00316249 9.47521e-05 0)
(-0.00330053 9.43181e-05 0)
(-0.00343781 9.37208e-05 0)
(-0.00357411 9.29675e-05 0)
(-0.00370919 9.20609e-05 0)
(-0.00384283 9.10031e-05 0)
(-0.00397483 8.9799e-05 0)
(-0.00410495 8.84514e-05 0)
(-0.00423301 8.69643e-05 0)
(-0.00435879 8.53421e-05 0)
(-0.00448212 8.3589e-05 0)
(-0.00460279 8.17117e-05 0)
(-0.00472064 7.97117e-05 0)
(-0.00483547 7.75915e-05 0)
(-0.00494713 7.53564e-05 0)
(-0.00505545 7.30102e-05 0)
(-0.00516027 7.05577e-05 0)
(-0.00526144 6.80032e-05 0)
(-0.00535881 6.53496e-05 0)
(-0.00545225 6.26032e-05 0)
(-0.00554161 5.97687e-05 0)
(-0.00562678 5.68487e-05 0)
(-0.00570764 5.38484e-05 0)
(-0.00578406 5.07728e-05 0)
(-0.00585595 4.76264e-05 0)
(-0.00592319 4.44139e-05 0)
(-0.00598571 4.11391e-05 0)
(-0.0060434 3.78057e-05 0)
(-0.00609619 3.44199e-05 0)
(-0.006144 3.0987e-05 0)
(-0.00618676 2.75102e-05 0)
(-0.00622441 2.39929e-05 0)
(-0.0062569 2.044e-05 0)
(-0.00628418 1.68561e-05 0)
(-0.0063062 1.3245e-05 0)
(-0.00632293 9.61156e-06 0)
(-0.00633434 5.96121e-06 0)
(-0.00634041 2.29868e-06 0)
(-0.00634113 -1.37146e-06 0)
(-0.00633647 -5.04399e-06 0)
(-0.00632646 -8.71406e-06 0)
(-0.00631108 -1.23776e-05 0)
(-0.00629036 -1.60296e-05 0)
(-0.00626432 -1.96635e-05 0)
(-0.00623298 -2.32741e-05 0)
(-0.00619638 -2.68576e-05 0)
(-0.00615456 -3.04095e-05 0)
(-0.00610758 -3.39243e-05 0)
(-0.0060555 -3.73967e-05 0)
(-0.00599836 -4.08223e-05 0)
(-0.00593626 -4.41963e-05 0)
(-0.00586926 -4.75135e-05 0)
(-0.00579747 -5.07689e-05 0)
(-0.00572096 -5.39579e-05 0)
(-0.00563984 -5.70761e-05 0)
(-0.00555423 -6.01182e-05 0)
(-0.00546423 -6.30789e-05 0)
(-0.00536998 -6.59526e-05 0)
(-0.0052716 -6.87336e-05 0)
(-0.00516925 -7.14159e-05 0)
(-0.00506306 -7.39939e-05 0)
(-0.00495319 -7.64623e-05 0)
(-0.00483981 -7.88162e-05 0)
(-0.00472308 -8.10499e-05 0)
(-0.0046032 -8.31575e-05 0)
(-0.00448034 -8.51335e-05 0)
(-0.00435471 -8.69733e-05 0)
(-0.00422649 -8.86727e-05 0)
(-0.00409591 -9.0227e-05 0)
(-0.00396317 -9.16312e-05 0)
(-0.0038285 -9.28804e-05 0)
(-0.00369213 -9.397e-05 0)
(-0.00355429 -9.48949e-05 0)
(-0.00341523 -9.56508e-05 0)
(-0.0032752 -9.62336e-05 0)
(-0.00313444 -9.66399e-05 0)
(-0.00299323 -9.68667e-05 0)
(-0.00285181 -9.69107e-05 0)
(-0.00271047 -9.67684e-05 0)
(-0.00256947 -9.64368e-05 0)
(-0.00242909 -9.5913e-05 0)
(-0.00228962 -9.51937e-05 0)
(-0.00215135 -9.42748e-05 0)
(-0.00201456 -9.31521e-05 0)
(-0.00187955 -9.18222e-05 0)
(-0.00174662 -9.02828e-05 0)
(-0.00161607 -8.85329e-05 0)
(-0.00148821 -8.65717e-05 0)
(-0.00136332 -8.43983e-05 0)
(-0.00124172 -8.20117e-05 0)
(-0.00112371 -7.94117e-05 0)
(-0.00100959 -7.65994e-05 0)
(-0.000899654 -7.3577e-05 0)
(-0.000794206 -7.03474e-05 0)
(-0.000693531 -6.69134e-05 0)
(-0.000597912 -6.32794e-05 0)
(-0.000507624 -5.94519e-05 0)
(-0.000422932 -5.5439e-05 0)
(-0.00034409 -5.12499e-05 0)
(-0.000271337 -4.68948e-05 0)
(-0.000204893 -4.23842e-05 0)
(-0.000144957 -3.77319e-05 0)
(-9.17041e-05 -3.29545e-05 0)
(-4.52806e-05 -2.8073e-05 0)
(-5.79458e-06 -2.31138e-05 0)
(2.6692e-05 -1.81099e-05 0)
(5.21753e-05 -1.31037e-05 0)
(7.07236e-05 -8.15079e-06 0)
(8.24962e-05 -3.32302e-06 0)
(8.77672e-05 1.28484e-06 0)
(8.69578e-05 5.54671e-06 0)
(8.06768e-05 9.29317e-06 0)
(6.97756e-05 1.22941e-05 0)
(5.54141e-05 1.42383e-05 0)
(3.91083e-05 1.47149e-05 0)
(2.27901e-05 1.32026e-05 0)
(9.16207e-06 9.14487e-06 0)
(1.71443e-06 2.71026e-06 0)
(3.06873e-06 -9.23965e-06 0)
(1.37817e-05 -2.27123e-05 0)
(3.1212e-05 -2.95945e-05 0)
(5.03276e-05 -3.10304e-05 0)
(6.77321e-05 -2.81222e-05 0)
(8.10597e-05 -2.18459e-05 0)
(8.83198e-05 -1.30398e-05 0)
(8.79526e-05 -2.37359e-06 0)
(7.87982e-05 9.59711e-06 0)
(5.99873e-05 2.24684e-05 0)
(3.0928e-05 3.5922e-05 0)
(-8.7649e-06 4.97044e-05 0)
(-5.93157e-05 6.36322e-05 0)
(-0.0001208 7.75397e-05 0)
(-0.000193185 9.13119e-05 0)
(-0.000276351 0.000104861 0)
(-0.00037011 0.000118095 0)
(-0.000474203 0.000130974 0)
(-0.000588338 0.000143429 0)
(-0.000712173 0.000155425 0)
(-0.00084533 0.000166927 0)
(-0.000987425 0.000177913 0)
(-0.00113804 0.000188351 0)
(-0.00129674 0.000198237 0)
(-0.00146307 0.000207548 0)
(-0.00163659 0.000216268 0)
(-0.00181683 0.000224406 0)
(-0.00200333 0.000231939 0)
(-0.00219561 0.000238879 0)
(-0.0023932 0.000245225 0)
(-0.00259563 0.00025098 0)
(-0.00280244 0.000256145 0)
(-0.00301315 0.000260731 0)
(-0.00322732 0.000264742 0)
(-0.00344446 0.000268183 0)
(-0.00366414 0.000271064 0)
(-0.00388591 0.000273393 0)
(-0.00410932 0.000275174 0)
(-0.00433394 0.00027642 0)
(-0.00455935 0.000277139 0)
(-0.00478511 0.000277342 0)
(-0.00501083 0.000277041 0)
(-0.0052361 0.000276251 0)
(-0.00546053 0.00027498 0)
(-0.00568372 0.00027324 0)
(-0.00590529 0.00027104 0)
(-0.00612489 0.000268393 0)
(-0.00634215 0.000265306 0)
(-0.00655672 0.000261791 0)
(-0.00676825 0.000257861 0)
(-0.00697642 0.000253526 0)
(-0.0071809 0.0002488 0)
(-0.00738138 0.000243693 0)
(-0.00757755 0.000238219 0)
(-0.00776912 0.00023239 0)
(-0.00795581 0.000226213 0)
(-0.00813733 0.000219702 0)
(-0.00831342 0.00021287 0)
(-0.00848383 0.000205728 0)
(-0.00864831 0.000198288 0)
(-0.00880662 0.000190564 0)
(-0.00895853 0.000182568 0)
(-0.00910384 0.000174313 0)
(-0.00924233 0.000165811 0)
(-0.00937381 0.000157073 0)
(-0.00949809 0.000148115 0)
(-0.009615 0.000138949 0)
(-0.00972437 0.000129588 0)
(-0.00982605 0.000120043 0)
(-0.00991989 0.00011033 0)
(-0.0100058 0.000100461 0)
(-0.0100835 9.04488e-05 0)
(-0.0101531 8.03073e-05 0)
(-0.0102144 7.00484e-05 0)
(-0.0102672 5.96844e-05 0)
(-0.0103116 4.92296e-05 0)
(-0.0103474 3.86975e-05 0)
(-0.0103747 2.81003e-05 0)
(-0.0103933 1.74518e-05 0)
(-0.0104032 6.76714e-06 0)
(-0.0104043 -3.93924e-06 0)
(-0.0103968 -1.4654e-05 0)
(-0.0103805 -2.53633e-05 0)
(-0.0103555 -3.60523e-05 0)
(-0.0103218 -4.67065e-05 0)
(-0.0102795 -5.73111e-05 0)
(-0.0102285 -6.78514e-05 0)
(-0.010169 -7.83128e-05 0)
(-0.010101 -8.86808e-05 0)
(-0.0100246 -9.89411e-05 0)
(-0.00993991 -0.000109079 0)
(-0.00984698 -0.000119079 0)
(-0.00974597 -0.000128927 0)
(-0.00963701 -0.00013861 0)
(-0.00952022 -0.000148111 0)
(-0.00939579 -0.000157416 0)
(-0.00926386 -0.000166509 0)
(-0.00912461 -0.000175377 0)
(-0.00897825 -0.000184004 0)
(-0.00882498 -0.000192374 0)
(-0.00866501 -0.000200471 0)
(-0.00849858 -0.000208278 0)
(-0.00832593 -0.000215781 0)
(-0.0081473 -0.000222963 0)
(-0.00796298 -0.000229811 0)
(-0.00777324 -0.000236307 0)
(-0.00757837 -0.000242436 0)
(-0.00737868 -0.000248184 0)
(-0.00717448 -0.000253536 0)
(-0.0069661 -0.000258477 0)
(-0.00675388 -0.000262996 0)
(-0.00653817 -0.000267077 0)
(-0.00631932 -0.000270707 0)
(-0.00609772 -0.000273872 0)
(-0.00587374 -0.00027656 0)
(-0.00564778 -0.000278756 0)
(-0.00542023 -0.000280451 0)
(-0.00519151 -0.000281633 0)
(-0.00496204 -0.000282292 0)
(-0.00473225 -0.000282419 0)
(-0.00450257 -0.000282003 0)
(-0.00427344 -0.000281035 0)
(-0.00404532 -0.000279508 0)
(-0.00381867 -0.000277411 0)
(-0.00359394 -0.000274736 0)
(-0.00337162 -0.000271475 0)
(-0.00315216 -0.00026762 0)
(-0.00293604 -0.000263166 0)
(-0.00272375 -0.000258109 0)
(-0.00251577 -0.000252448 0)
(-0.00231257 -0.000246181 0)
(-0.00211464 -0.000239309 0)
(-0.00192246 -0.000231832 0)
(-0.0017365 -0.000223754 0)
(-0.00155723 -0.000215083 0)
(-0.00138512 -0.000205825 0)
(-0.00122063 -0.000195994 0)
(-0.00106418 -0.000185602 0)
(-0.000916224 -0.000174669 0)
(-0.00077716 -0.000163217 0)
(-0.000647384 -0.000151273 0)
(-0.000527262 -0.000138869 0)
(-0.00041713 -0.000126042 0)
(-0.000317285 -0.000112836 0)
(-0.000227984 -9.93071e-05 0)
(-0.000149429 -8.55203e-05 0)
(-8.17623e-05 -7.15589e-05 0)
(-2.50451e-05 -5.75254e-05 0)
(2.0754e-05 -4.35485e-05 0)
(5.5783e-05 -2.97899e-05 0)
(8.03308e-05 -1.64546e-05 0)
(9.48606e-05 -3.8033e-06 0)
(0.000100049 7.82931e-06 0)
(9.68333e-05 1.80123e-05 0)
(8.64726e-05 2.61929e-05 0)
(7.06115e-05 3.16702e-05 0)
(5.13046e-05 3.3585e-05 0)
(3.10393e-05 3.09492e-05 0)
(1.32643e-05 2.27899e-05 0)
(2.76028e-06 8.8072e-06 0)
(3.52798e-06 -1.73871e-05 0)
(1.5326e-05 -3.90877e-05 0)
(3.37486e-05 -4.90099e-05 0)
(5.28114e-05 -4.98396e-05 0)
(6.86276e-05 -4.33191e-05 0)
(7.84688e-05 -3.09356e-05 0)
(8.00244e-05 -1.4047e-05 0)
(7.14275e-05 6.24155e-06 0)
(5.12284e-05 2.90213e-05 0)
(1.83496e-05 5.35393e-05 0)
(-2.79944e-05 7.92259e-05 0)
(-8.83227e-05 0.000105607 0)
(-0.00016296 0.000132314 0)
(-0.000252034 0.000159055 0)
(-0.000355523 0.000185582 0)
(-0.000473318 0.000211702 0)
(-0.000605176 0.00023727 0)
(-0.000750791 0.000262154 0)
(-0.000909786 0.000286247 0)
(-0.00108172 0.000309479 0)
(-0.00126612 0.000331761 0)
(-0.00146247 0.000353051 0)
(-0.00167023 0.000373302 0)
(-0.00188882 0.00039248 0)
(-0.00211766 0.00041055 0)
(-0.00235615 0.000427503 0)
(-0.00260367 0.000443311 0)
(-0.0028596 0.000457975 0)
(-0.00312332 0.000471487 0)
(-0.0033942 0.000483848 0)
(-0.0036716 0.000495062 0)
(-0.00395491 0.000505139 0)
(-0.00424348 0.000514083 0)
(-0.00453671 0.000521904 0)
(-0.00483396 0.000528617 0)
(-0.00513463 0.000534235 0)
(-0.00543811 0.000538773 0)
(-0.00574382 0.000542247 0)
(-0.00605115 0.000544675 0)
(-0.00635953 0.000546073 0)
(-0.00666839 0.000546461 0)
(-0.00697717 0.000545861 0)
(-0.00728532 0.000544292 0)
(-0.00759231 0.000541778 0)
(-0.0078976 0.000538341 0)
(-0.00820068 0.000534001 0)
(-0.00850105 0.000528777 0)
(-0.00879822 0.000522691 0)
(-0.0090917 0.000515764 0)
(-0.00938103 0.000508021 0)
(-0.00966576 0.000499482 0)
(-0.00994544 0.000490171 0)
(-0.0102196 0.000480113 0)
(-0.010488 0.000469329 0)
(-0.01075 0.000457843 0)
(-0.0110053 0.000445678 0)
(-0.0112536 0.000432855 0)
(-0.0114945 0.000419401 0)
(-0.0117275 0.000405337 0)
(-0.0119525 0.000390687 0)
(-0.012169 0.000375477 0)
(-0.0123768 0.000359732 0)
(-0.0125756 0.000343475 0)
(-0.012765 0.000326732 0)
(-0.0129448 0.000309526 0)
(-0.0131148 0.000291883 0)
(-0.0132747 0.000273829 0)
(-0.0134243 0.00025539 0)
(-0.0135634 0.000236588 0)
(-0.0136917 0.000217451 0)
(-0.0138092 0.000198007 0)
(-0.0139156 0.000178279 0)
(-0.0140107 0.000158292 0)
(-0.0140945 0.000138073 0)
(-0.0141668 0.000117648 0)
(-0.0142275 9.70437e-05 0)
(-0.0142764 7.62852e-05 0)
(-0.0143137 5.53999e-05 0)
(-0.014339 3.44149e-05 0)
(-0.0143525 1.33574e-05 0)
(-0.0143541 -7.74452e-06 0)
(-0.0143437 -2.88629e-05 0)
(-0.0143214 -4.99702e-05 0)
(-0.0142872 -7.10382e-05 0)
(-0.0142411 -9.20377e-05 0)
(-0.0141831 -0.00011294 0)
(-0.0141134 -0.000133716 0)
(-0.0140319 -0.000154338 0)
(-0.0139388 -0.000174777 0)
(-0.0138343 -0.000195002 0)
(-0.0137183 -0.000214985 0)
(-0.0135912 -0.000234697 0)
(-0.013453 -0.000254109 0)
(-0.0133039 -0.000273191 0)
(-0.0131441 -0.000291913 0)
(-0.0129738 -0.000310246 0)
(-0.0127933 -0.00032816 0)
(-0.0126029 -0.000345626 0)
(-0.0124026 -0.000362612 0)
(-0.012193 -0.000379089 0)
(-0.0119742 -0.000395025 0)
(-0.0117466 -0.00041039 0)
(-0.0115104 -0.000425153 0)
(-0.0112662 -0.000439283 0)
(-0.0110141 -0.000452752 0)
(-0.0107546 -0.000465529 0)
(-0.0104882 -0.000477584 0)
(-0.0102151 -0.000488889 0)
(-0.00993595 -0.000499414 0)
(-0.00965105 -0.000509133 0)
(-0.0093609 -0.000518018 0)
(-0.00906599 -0.000526042 0)
(-0.00876681 -0.000533179 0)
(-0.00846385 -0.000539402 0)
(-0.00815765 -0.000544687 0)
(-0.00784874 -0.000549009 0)
(-0.00753767 -0.000552346 0)
(-0.00722498 -0.000554675 0)
(-0.00691127 -0.000555977 0)
(-0.00659709 -0.000556233 0)
(-0.00628306 -0.000555422 0)
(-0.00596977 -0.000553528 0)
(-0.00565784 -0.000550535 0)
(-0.00534788 -0.000546425 0)
(-0.00504052 -0.000541183 0)
(-0.0047364 -0.000534797 0)
(-0.00443615 -0.000527256 0)
(-0.00414042 -0.00051855 0)
(-0.00384985 -0.000508673 0)
(-0.00356509 -0.000497623 0)
(-0.00328678 -0.000485397 0)
(-0.00301557 -0.000471999 0)
(-0.00275209 -0.000457433 0)
(-0.00249699 -0.00044171 0)
(-0.00225089 -0.000424842 0)
(-0.0020144 -0.000406849 0)
(-0.00178813 -0.000387754 0)
(-0.00157265 -0.000367588 0)
(-0.00136854 -0.000346388 0)
(-0.00117634 -0.0003242 0)
(-0.000996544 -0.000301079 0)
(-0.000829635 -0.000277091 0)
(-0.000676042 -0.000252313 0)
(-0.000536139 -0.000226839 0)
(-0.000410243 -0.000200781 0)
(-0.000298595 -0.000174275 0)
(-0.000201353 -0.00014749 0)
(-0.000118566 -0.000120631 0)
(-5.01606e-05 -9.39479e-05 0)
(4.09009e-06 -6.77539e-05 0)
(4.45921e-05 -4.24349e-05 0)
(7.19662e-05 -1.84723e-05 0)
(8.70891e-05 3.5325e-06 0)
(9.11413e-05 2.28285e-05 0)
(8.5663e-05 3.84852e-05 0)
(7.26115e-05 4.9366e-05 0)
(5.43739e-05 5.41222e-05 0)
(3.37905e-05 5.1241e-05 0)
(1.48262e-05 3.91724e-05 0)
(3.17731e-06 1.6602e-05 0)
(3.4829e-06 -2.57774e-05 0)
(1.47018e-05 -5.53053e-05 0)
(3.14134e-05 -6.71948e-05 0)
(4.72416e-05 -6.5892e-05 0)
(5.80214e-05 -5.3927e-05 0)
(6.07901e-05 -3.33847e-05 0)
(5.30274e-05 -6.09106e-06 0)
(3.27072e-05 2.63627e-05 0)
(-1.81188e-06 6.26652e-05 0)
(-5.17729e-05 0.000101745 0)
(-0.000118072 0.000142702 0)
(-0.000201349 0.000184834 0)
(-0.000301986 0.000227544 0)
(-0.00042018 0.000270372 0)
(-0.000555944 0.000312922 0)
(-0.000709127 0.000354881 0)
(-0.000879489 0.000395993 0)
(-0.00106668 0.000436042 0)
(-0.00127025 0.000474871 0)
(-0.00148971 0.000512317 0)
(-0.00172447 0.000548281 0)
(-0.00197391 0.000582663 0)
(-0.00223741 0.000615383 0)
(-0.00251425 0.000646388 0)
(-0.00280372 0.000675623 0)
(-0.00310511 0.000703065 0)
(-0.00341766 0.000728667 0)
(-0.0037406 0.000752435 0)
(-0.00407317 0.000774341 0)
(-0.0044146 0.000794393 0)
(-0.00476412 0.000812594 0)
(-0.00512094 0.000828948 0)
(-0.00548429 0.000843471 0)
(-0.00585341 0.000856175 0)
(-0.00622751 0.000867078 0)
(-0.00660585 0.000876199 0)
(-0.00698767 0.000883563 0)
(-0.00737224 0.000889195 0)
(-0.00775881 0.000893122 0)
(-0.00814667 0.000895374 0)
(-0.0085351 0.000895982 0)
(-0.00892341 0.000894975 0)
(-0.0093109 0.000892385 0)
(-0.00969692 0.000888247 0)
(-0.0100808 0.000882596 0)
(-0.0104619 0.000875465 0)
(-0.0108395 0.00086689 0)
(-0.0112132 0.000856905 0)
(-0.0115821 0.000845545 0)
(-0.0119459 0.000832846 0)
(-0.0123039 0.000818846 0)
(-0.0126555 0.000803581 0)
(-0.0130002 0.000787091 0)
(-0.0133376 0.000769413 0)
(-0.013667 0.000750582 0)
(-0.013988 0.000730638 0)
(-0.0143001 0.000709621 0)
(-0.0146029 0.000687565 0)
(-0.0148959 0.000664512 0)
(-0.0151787 0.000640501 0)
(-0.015451 0.000615571 0)
(-0.0157122 0.000589762 0)
(-0.015962 0.000563115 0)
(-0.0162001 0.000535668 0)
(-0.0164262 0.000507465 0)
(-0.0166399 0.000478545 0)
(-0.0168409 0.000448949 0)
(-0.0170289 0.000418718 0)
(-0.0172037 0.000387894 0)
(-0.017365 0.000356521 0)
(-0.0175126 0.000324638 0)
(-0.0176463 0.000292289 0)
(-0.0177659 0.000259517 0)
(-0.0178711 0.000226362 0)
(-0.017962 0.000192869 0)
(-0.0180382 0.000159081 0)
(-0.0180997 0.000125042 0)
(-0.0181464 9.07939e-05 0)
(-0.0181782 5.63827e-05 0)
(-0.0181951 2.18542e-05 0)
(-0.018197 -1.2747e-05 0)
(-0.0181839 -4.73763e-05 0)
(-0.0181558 -8.19873e-05 0)
(-0.0181127 -0.000116533 0)
(-0.0180546 -0.000150966 0)
(-0.0179816 -0.00018524 0)
(-0.0178939 -0.000219307 0)
(-0.0177914 -0.000253121 0)
(-0.0176743 -0.000286634 0)
(-0.0175427 -0.000319796 0)
(-0.0173969 -0.000352561 0)
(-0.017237 -0.00038488 0)
(-0.0170632 -0.000416704 0)
(-0.0168757 -0.000447985 0)
(-0.0166748 -0.000478674 0)
(-0.0164607 -0.000508722 0)
(-0.0162338 -0.000538081 0)
(-0.0159943 -0.000566699 0)
(-0.0157426 -0.000594529 0)
(-0.015479 -0.00062152 0)
(-0.015204 -0.000647622 0)
(-0.0149179 -0.000672785 0)
(-0.014621 -0.00069696 0)
(-0.014314 -0.000720098 0)
(-0.0139972 -0.000742151 0)
(-0.0136711 -0.000763069 0)
(-0.0133363 -0.000782805 0)
(-0.0129931 -0.000801311 0)
(-0.0126423 -0.000818542 0)
(-0.0122842 -0.000834452 0)
(-0.0119196 -0.000848997 0)
(-0.011549 -0.000862133 0)
(-0.0111731 -0.000873816 0)
(-0.0107924 -0.000884006 0)
(-0.0104076 -0.000892662 0)
(-0.0100194 -0.000899746 0)
(-0.00962847 -0.00090522 0)
(-0.00923551 -0.000909049 0)
(-0.00884124 -0.000911199 0)
(-0.00844638 -0.000911639 0)
(-0.00805166 -0.000910339 0)
(-0.00765785 -0.00090727 0)
(-0.00726569 -0.000902407 0)
(-0.00687598 -0.000895725 0)
(-0.00648948 -0.000887202 0)
(-0.00610698 -0.000876819 0)
(-0.00572928 -0.00086456 0)
(-0.00535716 -0.000850414 0)
(-0.00499144 -0.000834372 0)
(-0.0046329 -0.00081643 0)
(-0.00428235 -0.00079659 0)
(-0.00394058 -0.000774856 0)
(-0.00360837 -0.000751241 0)
(-0.00328651 -0.000725763 0)
(-0.00297577 -0.000698447 0)
(-0.00267689 -0.000669326 0)
(-0.00239061 -0.000638442 0)
(-0.00211763 -0.000605848 0)
(-0.00185865 -0.000571606 0)
(-0.0016143 -0.000535797 0)
(-0.00138521 -0.000498513 0)
(-0.00117192 -0.000459865 0)
(-0.000974959 -0.000419986 0)
(-0.000794749 -0.000379033 0)
(-0.000631657 -0.000337195 0)
(-0.000485954 -0.000294702 0)
(-0.000357802 -0.000251828 0)
(-0.000247237 -0.000208907 0)
(-0.000154144 -0.000166343 0)
(-7.8229e-05 -0.000124626 0)
(-1.89932e-05 -8.43579e-05 0)
(2.43046e-05 -4.62728e-05 0)
(5.26857e-05 -1.12692e-05 0)
(6.74975e-05 1.95574e-05 0)
(7.04632e-05 4.48807e-05 0)
(6.37335e-05 6.31156e-05 0)
(4.98998e-05 7.24063e-05 0)
(3.20347e-05 7.06618e-05 0)
(1.44108e-05 5.56095e-05 0)
(3.15503e-06 2.4669e-05 0)
(3.11091e-06 -3.33624e-05 0)
(1.25101e-05 -6.93218e-05 0)
(2.53755e-05 -8.15632e-05 0)
(3.54058e-05 -7.62919e-05 0)
(3.8323e-05 -5.6864e-05 0)
(3.10817e-05 -2.5974e-05 0)
(1.10613e-05 1.40218e-05 0)
(-2.39069e-05 6.10751e-05 0)
(-7.55184e-05 0.00011348 0)
(-0.00014512 0.000169784 0)
(-0.000233707 0.000228795 0)
(-0.000341969 0.000289524 0)
(-0.000470366 0.000351149 0)
(-0.000619106 0.000413001 0)
(-0.000788221 0.000474528 0)
(-0.00097759 0.000535266 0)
(-0.00118693 0.000594838 0)
(-0.00141585 0.000652931 0)
(-0.00166388 0.000709289 0)
(-0.00193043 0.000763699 0)
(-0.00221486 0.000815991 0)
(-0.00251648 0.00086601 0)
(-0.00283453 0.000913653 0)
(-0.00316822 0.00095882 0)
(-0.00351673 0.00100144 0)
(-0.00387922 0.00104145 0)
(-0.00425481 0.00107882 0)
(-0.00464261 0.00111352 0)
(-0.00504175 0.00114552 0)
(-0.0054513 0.00117482 0)
(-0.00587036 0.00120142 0)
(-0.00629802 0.00122533 0)
(-0.00673336 0.00124657 0)
(-0.00717549 0.00126514 0)
(-0.00762349 0.00128109 0)
(-0.00807647 0.00129442 0)
(-0.00853355 0.00130518 0)
(-0.00899383 0.0013134 0)
(-0.00945646 0.00131912 0)
(-0.00992057 0.00132238 0)
(-0.0103853 0.00132321 0)
(-0.0108499 0.00132168 0)
(-0.0113135 0.00131782 0)
(-0.0117753 0.00131168 0)
(-0.0122344 0.00130331 0)
(-0.0126903 0.00129276 0)
(-0.013142 0.00128007 0)
(-0.0135889 0.00126531 0)
(-0.0140302 0.00124853 0)
(-0.0144653 0.00122977 0)
(-0.0148934 0.00120909 0)
(-0.0153139 0.00118654 0)
(-0.0157262 0.00116219 0)
(-0.0161296 0.00113608 0)
(-0.0165236 0.00110827 0)
(-0.0169075 0.00107882 0)
(-0.0172807 0.00104778 0)
(-0.0176428 0.00101522 0)
(-0.0179932 0.000981176 0)
(-0.0183314 0.000945722 0)
(-0.0186569 0.000908911 0)
(-0.0189693 0.000870802 0)
(-0.019268 0.000831454 0)
(-0.0195527 0.000790927 0)
(-0.019823 0.00074928 0)
(-0.0200785 0.000706575 0)
(-0.0203188 0.000662872 0)
(-0.0205436 0.00061823 0)
(-0.0207526 0.000572711 0)
(-0.0209455 0.00052638 0)
(-0.0211219 0.000479297 0)
(-0.0212817 0.000431523 0)
(-0.0214246 0.000383121 0)
(-0.0215504 0.000334158 0)
(-0.0216589 0.000284694 0)
(-0.0217499 0.000234794 0)
(-0.0218234 0.000184523 0)
(-0.0218792 0.000133945 0)
(-0.0219171 8.31269e-05 0)
(-0.0219372 3.21354e-05 0)
(-0.0219394 -1.89627e-05 0)
(-0.0219236 -7.01006e-05 0)
(-0.0218898 -0.00012121 0)
(-0.0218382 -0.000172223 0)
(-0.0217686 -0.000223068 0)
(-0.0216813 -0.000273678 0)
(-0.0215762 -0.000323983 0)
(-0.0214535 -0.000373911 0)
(-0.0213134 -0.000423393 0)
(-0.0211561 -0.000472356 0)
(-0.0209816 -0.000520731 0)
(-0.0207903 -0.000568445 0)
(-0.0205824 -0.000615426 0)
(-0.0203581 -0.000661603 0)
(-0.0201178 -0.000706904 0)
(-0.0198618 -0.000751254 0)
(-0.0195904 -0.000794581 0)
(-0.019304 -0.000836814 0)
(-0.0190031 -0.000877879 0)
(-0.0186879 -0.000917702 0)
(-0.0183591 -0.000956211 0)
(-0.0180169 -0.000993331 0)
(-0.0176621 -0.00102899 0)
(-0.017295 -0.00106312 0)
(-0.0169163 -0.00109565 0)
(-0.0165264 -0.0011265 0)
(-0.0161261 -0.00115561 0)
(-0.0157159 -0.0011829 0)
(-0.0152965 -0.00120832 0)
(-0.0148685 -0.00123178 0)
(-0.0144326 -0.00125324 0)
(-0.0139896 -0.00127261 0)
(-0.0135402 -0.00128985 0)
(-0.013085 -0.00130489 0)
(-0.0126251 -0.00131767 0)
(-0.012161 -0.00132814 0)
(-0.0116936 -0.00133624 0)
(-0.0112238 -0.00134192 0)
(-0.0107523 -0.00134513 0)
(-0.0102802 -0.00134583 0)
(-0.00980814 -0.00134397 0)
(-0.00933713 -0.00133951 0)
(-0.00886805 -0.00133242 0)
(-0.00840182 -0.00132265 0)
(-0.00793935 -0.0013102 0)
(-0.00748158 -0.00129501 0)
(-0.00702944 -0.00127709 0)
(-0.00658387 -0.0012564 0)
(-0.00614581 -0.00123295 0)
(-0.0057162 -0.00120672 0)
(-0.00529598 -0.00117773 0)
(-0.00488608 -0.00114599 0)
(-0.00448742 -0.00111151 0)
(-0.00410091 -0.00107433 0)
(-0.00372745 -0.00103448 0)
(-0.00336791 -0.000992026 0)
(-0.00302314 -0.000947025 0)
(-0.00269396 -0.000899559 0)
(-0.00238116 -0.000849728 0)
(-0.00208549 -0.000797651 0)
(-0.00180765 -0.000743469 0)
(-0.00154826 -0.000687353 0)
(-0.00130791 -0.0006295 0)
(-0.00108708 -0.000570148 0)
(-0.000886174 -0.00050958 0)
(-0.000705482 -0.000448133 0)
(-0.000545173 -0.000386211 0)
(-0.00040527 -0.000324294 0)
(-0.000285625 -0.000262962 0)
(-0.000185895 -0.000202907 0)
(-0.000105516 -0.000144965 0)
(-4.36628e-05 -9.01418e-05 0)
(7.80504e-07 -3.96487e-05 0)
(2.9265e-05 5.06386e-06 0)
(4.36213e-05 4.2268e-05 0)
(4.61069e-05 6.9925e-05 0)
(3.94251e-05 8.56597e-05 0)
(2.67806e-05 8.67696e-05 0)
(1.25495e-05 7.01958e-05 0)
(2.84671e-06 3.20937e-05 0)
(2.53344e-06 -3.94756e-05 0)
(9.24092e-06 -7.96074e-05 0)
(1.66048e-05 -9.00781e-05 0)
(1.87791e-05 -7.86858e-05 0)
(1.15962e-05 -4.96055e-05 0)
(-8.04488e-06 -6.10021e-06 0)
(-4.2793e-05 4.89012e-05 0)
(-9.47955e-05 0.000112951 0)
(-0.000165825 0.000183882 0)
(-0.000257271 0.000259924 0)
(-0.000370141 0.00033955 0)
(-0.000505194 0.000421484 0)
(-0.00066289 0.000504667 0)
(-0.000843475 0.000588219 0)
(-0.001047 0.000671386 0)
(-0.0012733 0.000753564 0)
(-0.00152211 0.000834234 0)
(-0.001793 0.000912968 0)
(-0.00208544 0.000989409 0)
(-0.0023988 0.00106327 0)
(-0.00273238 0.00113429 0)
(-0.0030854 0.00120228 0)
(-0.00345703 0.00126708 0)
(-0.00384639 0.00132854 0)
(-0.00425256 0.00138658 0)
(-0.00467458 0.00144108 0)
(-0.00511148 0.00149201 0)
(-0.00556227 0.00153932 0)
(-0.00602592 0.00158297 0)
(-0.00650142 0.00162295 0)
(-0.00698773 0.00165925 0)
(-0.00748382 0.00169189 0)
(-0.00798865 0.00172088 0)
(-0.00850119 0.00174624 0)
(-0.0090204 0.00176799 0)
(-0.00954527 0.00178619 0)
(-0.0100748 0.00180085 0)
(-0.0106079 0.00181204 0)
(-0.0111437 0.0018198 0)
(-0.0116811 0.00182419 0)
(-0.0122192 0.00182525 0)
(-0.0127571 0.00182306 0)
(-0.0132937 0.00181766 0)
(-0.0138282 0.00180914 0)
(-0.0143597 0.00179755 0)
(-0.0148873 0.00178295 0)
(-0.0154101 0.00176543 0)
(-0.0159273 0.00174505 0)
(-0.016438 0.00172187 0)
(-0.0169414 0.00169598 0)
(-0.0174369 0.00166744 0)
(-0.0179235 0.00163633 0)
(-0.0184005 0.00160274 0)
(-0.0188673 0.00156672 0)
(-0.0193231 0.00152836 0)
(-0.0197673 0.00148773 0)
(-0.0201991 0.00144492 0)
(-0.0206181 0.0014 0)
(-0.0210234 0.00135305 0)
(-0.0214147 0.00130415 0)
(-0.0217913 0.00125338 0)
(-0.0221526 0.00120082 0)
(-0.0224982 0.00114654 0)
(-0.0228276 0.00109065 0)
(-0.0231402 0.00103321 0)
(-0.0234358 0.000974309 0)
(-0.0237137 0.00091403 0)
(-0.0239737 0.000852458 0)
(-0.0242154 0.000789679 0)
(-0.0244384 0.000725775 0)
(-0.0246425 0.000660833 0)
(-0.0248272 0.00059494 0)
(-0.0249925 0.000528182 0)
(-0.0251379 0.000460647 0)
(-0.0252633 0.000392423 0)
(-0.0253686 0.000323598 0)
(-0.0254534 0.000254262 0)
(-0.0255178 0.000184504 0)
(-0.0255616 0.000114417 0)
(-0.0255847 4.40915e-05 0)
(-0.0255871 -2.63804e-05 0)
(-0.0255687 -9.69053e-05 0)
(-0.0255296 -0.000167389 0)
(-0.0254697 -0.000237737 0)
(-0.0253891 -0.000307854 0)