/*--------------------------------*- C++ -*----------------------------------*\
  =========                 |
  \\      /  F ield         | OpenFOAM: The Open Source CFD Toolbox
   \\    /   O peration     | Website:  https://openfoam.org
    \\  /    A nd           | Version:  7
     \\/     M anipulation  |
\*---------------------------------------------------------------------------*/
FoamFile
{
    version     2.0;
    format      ascii;
    class       volScalarField;
    location    "0.3";
    object      p;
}
// * * * * * * * * * * * * * * * * * * * * * * * * * * * * * * * * * * * * * //

dimensions      [0 2 -2 0 0 0 0];

internalField   nonuniform List<scalar> 
25600
(
5.39902e-06
0.000121293
0.000150854
4.28038e-05
-0.000210557
-0.000605031
-0.0011295
-0.00176947
-0.00250952
-0.00333445
-0.00422972
-0.0051817
-0.00617777
-0.00720632
-0.00825665
-0.00931894
-0.0103842
-0.011444
-0.0124909
-0.013518
-0.0145189
-0.0154879
-0.0164196
-0.0173094
-0.0181527
-0.0189458
-0.0196848
-0.0203668
-0.0209887
-0.0215479
-0.0220423
-0.0224697
-0.0228284
-0.023117
-0.0233342
-0.0234789
-0.0235503
-0.0235478
-0.0234708
-0.023319
-0.0230925
-0.0227911
-0.022415
-0.0219647
-0.0214406
-0.0208431
-0.0201732
-0.0194315
-0.0186191
-0.017737
-0.0167863
-0.0157682
-0.0146842
-0.0135356
-0.012324
-0.011051
-0.00971817
-0.0083274
-0.00688047
-0.00537927
-0.00382577
-0.00222198
-0.000570008
0.00112802
0.0028699
0.00465338
0.00647615
0.00833586
0.0102301
0.0121564
0.0141124
0.0160954
0.0181029
0.0201324
0.0221811
0.0242464
0.0263257
0.0284163
0.0305153
0.03262
0.0347278
0.0368357
0.0389411
0.041041
0.0431328
0.0452135
0.0472804
0.0493307
0.0513615
0.0533701
0.0553538
0.0573097
0.0592352
0.0611275
0.0629839
0.0648019
0.0665789
0.0683122
0.0699995
0.0716381
0.0732258
0.0747602
0.0762391
0.0776601
0.0790213
0.0803206
0.0815561
0.0827259
0.0838282
0.0848614
0.085824
0.0867146
0.0875318
0.0882745
0.0889417
0.0895324
0.090046
0.0904818
0.0908394
0.0911186
0.0913193
0.0914416
0.0914857
0.0914522
0.0913418
0.0911553
0.0908939
0.090559
0.0901522
0.0896754
0.0891306
0.0885204
0.0878473
0.0871145
0.0863253
0.0854832
0.0845925
0.0836574
0.0826828
0.0816739
0.0806363
0.0795763
0.0785006
0.0774163
0.0763313
0.0752541
0.0741938
0.0731603
0.0721643
0.0712173
0.0703316
0.0695205
0.0687979
0.0681782
0.067676
0.0673042
0.0670722
0.0669817
0.067022
0.0671373
-0.000101961
1.04428e-05
1.49169e-05
-0.000105973
-0.000348116
-0.000709646
-0.00118396
-0.00176068
-0.00242788
-0.00317319
-0.00398434
-0.00484949
-0.00575744
-0.00669766
-0.00766032
-0.00863628
-0.00961705
-0.0105948
-0.0115623
-0.0125129
-0.0134404
-0.0143394
-0.0152047
-0.0160315
-0.0168156
-0.0175531
-0.0182404
-0.0188743
-0.019452
-0.0199708
-0.0204284
-0.0208228
-0.0211523
-0.0214153
-0.0216105
-0.0217368
-0.0217934
-0.0217794
-0.0216944
-0.0215381
-0.0213102
-0.0210107
-0.0206398
-0.0201976
-0.0196847
-0.0191014
-0.0184485
-0.0177267
-0.0169369
-0.01608
-0.0151572
-0.0141695
-0.0131183
-0.0120049
-0.0108308
-0.00959744
-0.00830649
-0.00695961
-0.00555855
-0.00410513
-0.00260123
-0.0010488
0.000550157
0.00219358
0.00387935
0.00560528
0.00736917
0.00916873
0.0110016
0.0128655
0.014758
0.0166766
0.0186189
0.0205824
0.0225644
0.0245625
0.026574
0.0285963
0.0306268
0.0326628
0.0347016
0.0367406
0.038777
0.0408081
0.0428313
0.0448437
0.0468427
0.0488256
0.0507897
0.0527322
0.0546506
0.0565421
0.0584042
0.0602342
0.0620295
0.0637877
0.0655061
0.0671825
0.0688143
0.0703993
0.071935
0.0734194
0.0748502
0.0762252
0.0775426
0.0788004
0.0799967
0.0811297
0.0821979
0.0831996
0.0841334
0.084998
0.0857921
0.0865147
0.0871649
0.0877418
0.0882447
0.0886732
0.0890269
0.0893056
0.0895092
0.089638
0.0896923
0.0896725
0.0895796
0.0894143
0.0891779
0.0888718
0.0884976
0.0880571
0.0875526
0.0869864
0.0863612
0.0856801
0.0849462
0.0841632
0.0833351
0.0824661
0.081561
0.0806249
0.0796632
0.0786819
0.0776874
0.0766867
0.0756872
0.0746968
0.0737241
0.0727783
0.0718693
0.0710074
0.0702035
0.0694691
0.0688158
0.0682553
0.0677987
0.0674552
0.0672301
0.0671235
0.0671373
0.0672526
-0.000129678
6.88907e-06
1.1216e-05
-0.000111003
-0.000343172
-0.000682173
-0.00112258
-0.0016557
-0.00227147
-0.00295938
-0.00370875
-0.00450913
-0.00535045
-0.00622311
-0.00711806
-0.00802675
-0.00894123
-0.00985408
-0.0107584
-0.0116479
-0.0125166
-0.0133593
-0.0141707
-0.0149465
-0.0156824
-0.0163745
-0.0170195
-0.017614
-0.0181552
-0.0186407
-0.019068
-0.0194352
-0.0197404
-0.0199822
-0.0201591
-0.0202701
-0.0203142
-0.0202908
-0.0201991
-0.0200389
-0.0198099
-0.019512
-0.0191452
-0.0187099
-0.0182063
-0.0176349
-0.0169962
-0.0162911
-0.0155202
-0.0146846
-0.0137851
-0.012823
-0.0117994
-0.0107156
-0.00957297
-0.00837303
-0.0071173
-0.00580738
-0.00444497
-0.00303181
-0.00156971
-6.05702e-05
0.00149369
0.00309107
0.00472951
0.00640692
0.00812113
0.00986994
0.0116511
0.0134623
0.0153013
0.0171656
0.0190528
0.0209606
0.0228864
0.0248277
0.026782
0.0287469
0.0307196
0.0326976
0.0346783
0.0366591
0.0386374
0.0406106
0.0425759
0.0445309
0.0464727
0.0483989
0.0503067
0.0521937
0.0540571
0.0558945
0.0577032
0.0594808
0.0612247
0.0629326
0.064602
0.0662305
0.0678158
0.0693557
0.0708479
0.0722903
0.0736808
0.0750173
0.076298
0.077521
0.0786845
0.0797868
0.0808264
0.0818017
0.0827115
0.0835544
0.0843293
0.0850352
0.0856712
0.0862365
0.0867306
0.087153
0.0875033
0.0877816
0.0879877
0.0881218
0.0881845
0.0881762
0.0880976
0.0879499
0.0877341
0.0874517
0.0871043
0.0866938
0.0862223
0.0856922
0.0851062
0.0844672
0.0837784
0.0830434
0.0822661
0.0814506
0.0806016
0.0797239
0.0788229
0.0779044
0.0769744
0.0760396
0.075107
0.0741842
0.0732792
0.0724006
0.0715574
0.070759
0.0700152
0.0693361
0.068732
0.0682126
0.0677871
0.0674636
0.0672462
0.067137
0.067151
0.0672931
-2.15038e-05
0.000128127
0.000133915
1.18031e-05
-0.000214388
-0.000539608
-0.00095818
-0.0014619
-0.00204174
-0.00268827
-0.00339199
-0.00414348
-0.00493363
-0.00575362
-0.00659509
-0.00745008
-0.00831112
-0.00917122
-0.0100239
-0.010863
-0.0116829
-0.0124786
-0.013245
-0.0139779
-0.014673
-0.0153268
-0.0159357
-0.0164966
-0.0170068
-0.0174637
-0.017865
-0.0182087
-0.018493
-0.0187165
-0.0188776
-0.0189754
-0.0190088
-0.018977
-0.0188796
-0.018716
-0.018486
-0.0181895
-0.0178265
-0.0173971
-0.0169017
-0.0163407
-0.0157146
-0.0150241
-0.0142699
-0.0134529
-0.0125741
-0.0116344
-0.0106351
-0.0095774
-0.00846261
-0.00729215
-0.0060675
-0.00479022
-0.00346193
-0.00208433
-0.000659178
0.000811716
0.00232647
0.00388315
0.00547976
0.00711425
0.00878454
0.0104885
0.0122239
0.0139885
0.0157801
0.0175964
0.019435
0.0212935
0.0231695
0.0250607
0.0269645
0.0288785
0.0308001
0.0327269
0.0346563
0.0365858
0.0385127
0.0404347
0.042349
0.0442532
0.0461446
0.0480207
0.049879
0.0517169
0.0535319
0.0553215
0.0570833
0.0588147
0.0605134
0.0621771
0.0638032
0.0653897
0.0669341
0.0684344
0.0698883
0.0712939
0.072649
0.0739517
0.0752002
0.0763927
0.0775274
0.0786029
0.0796174
0.0805697
0.0814584
0.0822823
0.0830404
0.0837316
0.0843552
0.0849105
0.0853968
0.0858139
0.0861613
0.0864391
0.0866473
0.0867861
0.0868559
0.0868574
0.0867912
0.0866585
0.0864604
0.0861983
0.0858738
0.0854889
0.0850455
0.0845462
0.0839934
0.0833901
0.0827394
0.0820449
0.0813102
0.0805395
0.0797373
0.0789082
0.0780574
0.0771904
0.0763131
0.0754317
0.0745531
0.0736842
0.0728327
0.0720065
0.0712138
0.0704634
0.0697642
0.0691252
0.0685556
0.0680641
0.0676592
0.0673483
0.0671362
0.0670272
0.0670443
0.0672033
0.000231283
0.000370411
0.000366683
0.000238761
1.25124e-05
-0.00030578
-0.00071013
-0.00119269
-0.00174512
-0.00235894
-0.00302557
-0.00373652
-0.00448348
-0.00525839
-0.00605353
-0.00686152
-0.00767538
-0.00848855
-0.00929488
-0.0100886
-0.0108644
-0.0116173
-0.0123426
-0.0130361
-0.0136938
-0.0143121
-0.0148876
-0.0154174
-0.0158987
-0.0163289
-0.0167059
-0.0170277
-0.0172924
-0.0174987
-0.017645
-0.0177303
-0.0177536
-0.0177141
-0.0176113
-0.0174445
-0.0172137
-0.0169186
-0.0165591
-0.0161356
-0.0156481
-0.0150971
-0.014483
-0.0138065
-0.0130684
-0.0122693
-0.0114102
-0.0104921
-0.00951617
-0.00848353
-0.00739547
-0.00625334
-0.00505858
-0.00381267
-0.00251721
-0.00117381
0.000215811
0.0016499
0.00312664
0.00464414
0.00620049
0.00779368
0.00942169
0.0110824
0.0127738
0.0144936
0.0162396
0.0180096
0.0198013
0.0216125
0.0234407
0.0252835
0.0271387
0.0290038
0.0308763
0.0327538
0.0346338
0.0365139
0.0383915
0.0402642
0.0421295
0.0439849
0.0458278
0.0476559
0.0494666
0.0512574
0.0530259
0.0547697
0.0564864
0.0581736
0.0598289
0.0614501
0.0630349
0.0645811
0.0660864
0.0675487
0.068966
0.0703363
0.0716575
0.0729279
0.0741456
0.075309
0.0764163
0.077466
0.0784566
0.0793869
0.0802555
0.0810613
0.0818033
0.0824806
0.0830923
0.0836379
0.0841168
0.0845287
0.0848733
0.0851506
0.0853607
0.0855037
0.0855802
0.0855908
0.0855362
0.0854175
0.0852359
0.0849927
0.0846896
0.0843284
0.0839112
0.0834403
0.0829183
0.0823479
0.0817324
0.0810751
0.0803796
0.0796498
0.0788901
0.0781051
0.0772996
0.076479
0.0756488
0.074815
0.0739839
0.0731623
0.072357
0.0715756
0.0708257
0.0701152
0.0694523
0.0688451
0.0683019
0.0678308
0.0674395
0.0671352
0.0669233
0.0668094
0.0668194
0.0669724
0.000625002
0.000732375
0.000706692
0.000564995
0.000331407
1.27264e-05
-0.000384938
-0.000854141
-0.00138721
-0.00197642
-0.00261402
-0.0032923
-0.00400369
-0.00474082
-0.00549657
-0.00626412
-0.00703699
-0.00780902
-0.00857446
-0.00932786
-0.0100642
-0.0107786
-0.0114668
-0.0121246
-0.0127482
-0.0133341
-0.0138791
-0.0143803
-0.0148349
-0.0152406
-0.0155952
-0.0158966
-0.0161433
-0.0163335
-0.0164661
-0.0165398
-0.0165538
-0.0165071
-0.0163993
-0.0162297
-0.0159982
-0.0157045
-0.0153486
-0.0149305
-0.0144506
-0.0139092
-0.0133067
-0.0126436
-0.0119207
-0.0111387
-0.0102985
-0.00940108
-0.00844744
-0.00743875
-0.00637623
-0.00526119
-0.00409499
-0.00287908
-0.001615
-0.000304311
0.00105133
0.00245022
0.00389059
0.00537063
0.00688845
0.00844213
0.0100297
0.0116491
0.0132983
0.0149752
0.0166776
0.0184034
0.0201503
0.0219161
0.0236985
0.0254952
0.0273039
0.0291222
0.0309477
0.0327781
0.0346109
0.0364437
0.0382742
0.0400999
0.0419184
0.0437271
0.0455238
0.047306
0.0490712
0.0508171
0.0525413
0.0542414
0.0559151
0.0575602
0.0591742
0.0607549
0.0623003
0.063808
0.0652761
0.0667023
0.0680847
0.0694215
0.0707105
0.0719502
0.0731387
0.0742743
0.0753555
0.0763808
0.0773488
0.0782581
0.0791077
0.0798963
0.080623
0.081287
0.0818875
0.0824239
0.0828957
0.0833026
0.0836444
0.0839211
0.0841327
0.0842796
0.0843623
0.0843812
0.0843373
0.0842315
0.0840651
0.0838393
0.0835559
0.0832165
0.0828233
0.0823786
0.0818847
0.0813445
0.080761
0.0801375
0.0794774
0.0787847
0.0780633
0.0773177
0.0765527
0.0757732
0.0749845
0.0741923
0.0734025
0.0726214
0.0718555
0.0711117
0.0703971
0.0697188
0.0690844
0.0685013
0.067977
0.0675188
0.0671341
0.0668298
0.0666115
0.0664853
0.0664763
0.0666023
0.0011492
0.00120786
0.00114881
0.000985104
0.000736624
0.000410151
1.17223e-05
-0.000451728
-0.000973169
-0.00154556
-0.00216187
-0.00281509
-0.00349831
-0.00420481
-0.00492803
-0.00566168
-0.00639975
-0.0071365
-0.00786655
-0.00858478
-0.0092864
-0.00996691
-0.0106221
-0.011248
-0.0118411
-0.0123979
-0.0129154
-0.0133907
-0.0138212
-0.0142046
-0.0145387
-0.0148216
-0.0150517
-0.0152274
-0.0153474
-0.0154106
-0.015416
-0.0153628
-0.0152504
-0.0150784
-0.0148463
-0.0145541
-0.0142016
-0.0137889
-0.0133162
-0.0127839
-0.0121923
-0.011542
-0.0108336
-0.0100678
-0.00924555
-0.00836766
-0.00743518
-0.0064492
-0.00541089
-0.00432152
-0.00318241
-0.00199496
-0.000760645
0.000519012
0.00184241
0.0032079
0.00461377
0.00605825
0.00753952
0.0090557
0.0106049
0.0121851
0.0137943
0.0154304
0.0170915
0.0187753
0.0204797
0.0222024
0.0239414
0.0256943
0.0274589
0.0292328
0.0310138
0.0327995
0.0345875
0.0363757
0.0381615
0.0399426
0.0417167
0.0434813
0.0452342
0.0469729
0.0486951
0.0503985
0.0520808
0.0537396
0.0553727
0.0569778
0.0585527
0.0600953
0.0616034
0.0630749
0.0645078
0.0658999
0.0672495
0.0685546
0.0698133
0.071024
0.0721849
0.0732945
0.0743511
0.0753534
0.0763
0.0771897
0.0780212
0.0787936
0.079506
0.0801574
0.0807472
0.0812749
0.08174
0.0821421
0.0824812
0.0827571
0.0829701
0.0831205
0.0832086
0.0832351
0.0832008
0.0831068
0.0829541
0.0827442
0.0824786
0.0821591
0.0817876
0.0813665
0.080898
0.080385
0.0798302
0.0792369
0.0786084
0.0779485
0.0772611
0.0765503
0.0758206
0.0750769
0.074324
0.0735674
0.0728126
0.0720655
0.0713321
0.0706188
0.0699321
0.0692787
0.0686653
0.0680987
0.0675859
0.0671336
0.0667485
0.0664371
0.0662052
0.066059
0.0660198
0.0661019
0.00179005
0.00178696
0.00168479
0.00149137
0.00122081
0.000879543
0.000473402
8.7074e-06
-0.000508156
-0.0010708
-0.00167284
-0.00230791
-0.00296973
-0.00365214
-0.00434915
-0.00505494
-0.00576396
-0.00647091
-0.00717073
-0.00785864
-0.00853014
-0.00918097
-0.00980715
-0.0104049
-0.0109709
-0.0115017
-0.0119945
-0.0124466
-0.0128554
-0.0132186
-0.0135342
-0.0138004
-0.0140154
-0.0141778
-0.0142864
-0.01434
-0.0143377
-0.0142787
-0.0141623
-0.0139881
-0.0137557
-0.013465
-0.0131159
-0.0127084
-0.0122426
-0.011719
-0.0111378
-0.0104996
-0.00980497
-0.00905461
-0.00824931
-0.00738996
-0.00647752
-0.00551306
-0.0044977
-0.00343267
-0.00231923
-0.00115876
4.73435e-05
0.00129759
0.00259042
0.00392426
0.00529741
0.00670818
0.00815479
0.00963541
0.0111482
0.0126912
0.0142625
0.01586
0.0174819
0.0191258
0.0207899
0.0224719
0.0241697
0.0258811
0.0276039
0.0293357
0.0310745
0.0328179
0.0345636
0.0363094
0.0380529
0.0397919
0.0415239
0.0432468
0.0449583
0.0466559
0.0483375
0.0500007
0.0516433
0.0532631
0.0548578
0.0564253
0.0579633
0.0594699
0.0609429
0.0623802
0.0637798
0.0651399
0.0664585
0.0677338
0.068964
0.0701473
0.0712823
0.0723673
0.0734008
0.0743814
0.0753079
0.076179
0.0769937
0.0777508
0.0784496
0.0790892
0.079669
0.0801884
0.080647
0.0810446
0.0813809
0.081656
0.0818701
0.0820234
0.0821164
0.0821497
0.0821241
0.0820406
0.0819004
0.0817048
0.0814552
0.0811536
0.0808016
0.0804016
0.0799559
0.0794671
0.0789379
0.0783715
0.077771
0.07714
0.0764822
0.0758017
0.0751027
0.0743896
0.0736673
0.0729407
0.0722151
0.0714959
0.0707887
0.0700994
0.0694339
0.0687984
0.0681992
0.0676425
0.0671344
0.0666812
0.066289
0.065964
0.0657115
0.0655378
0.0654588
0.0654839
0.0025329
0.00245847
0.00230528
0.00207539
0.00177624
0.0014138
0.000993603
0.000521305
2.63632e-06
-0.000556647
-0.00115077
-0.00177396
-0.00242052
-0.00308482
-0.00376139
-0.00444489
-0.0051302
-0.00581241
-0.00648683
-0.00714898
-0.00779464
-0.00841981
-0.00902071
-0.00959383
-0.0101359
-0.0106438
-0.0111147
-0.011546
-0.0119353
-0.0122805
-0.0125795
-0.0128306
-0.0130321
-0.0131826
-0.0132809
-0.0133259
-0.0133167
-0.0132524
-0.0131326
-0.0129566
-0.0127241
-0.0124351
-0.0120892
-0.0116867
-0.0112277
-0.0107123
-0.0101411
-0.00951437
-0.00883281
-0.00809705
-0.00730786
-0.00646607
-0.00557263
-0.00462856
-0.00363494
-0.00259296
-0.00150385
-0.000368915
0.00081046
0.00203284
0.00329673
0.00460056
0.00594273
0.00732157
0.00873534
0.0101823
0.0116606
0.0131684
0.0147037
0.0162647
0.0178494
0.0194557
0.0210816
0.022725
0.0243838
0.0260559
0.027739
0.0294312
0.03113
0.0328334
0.034539
0.0362447
0.0379482
0.0396473
0.0413397
0.0430231
0.0446954
0.0463542
0.0479974
0.0496227
0.0512279
0.0528108
0.0543694
0.0559013
0.0574047
0.0588772
0.0603171
0.0617222
0.0630906
0.0644205
0.0657099
0.0669571
0.0681604
0.0693181
0.0704287
0.0714906
0.0725023
0.0734626
0.0743702
0.0752239
0.0760226
0.0767654
0.0774514
0.0780799
0.0786501
0.0791617
0.0796142
0.0800073
0.0803409
0.080615
0.0808299
0.0809857
0.0810829
0.0811223
0.0811044
0.0810304
0.0809013
0.0807184
0.0804833
0.0801975
0.079863
0.0794819
0.0790564
0.078589
0.0780824
0.0775396
0.0769636
0.0763578
0.0757257
0.0750712
0.0743984
0.0737114
0.0730146
0.0723129
0.071611
0.070914
0.0702272
0.0695559
0.0689056
0.068282
0.0676908
0.0671375
0.066628
0.0661678
0.0657624
0.0654175
0.0651382
0.0649304
0.0648036
0.0647619
0.00336353
0.00321092
0.00300056
0.00272851
0.00239512
0.00200582
0.00156588
0.00108024
0.000554003
-7.69363e-06
-0.000599647
-0.00121665
-0.00185355
-0.00250522
-0.00316666
-0.00383302
-0.00449957
-0.00516178
-0.00581529
-0.00645595
-0.00707981
-0.0076831
-0.0082623
-0.00881407
-0.0093353
-0.00982309
-0.0102748
-0.0106878
-0.0110599
-0.0113891
-0.0116733
-0.0119109
-0.0121004
-0.0122403
-0.0123294
-0.0123668
-0.0123514
-0.0122826
-0.0121597
-0.0119823
-0.0117501
-0.0114627
-0.0111202
-0.0107226
-0.0102699
-0.00976252
-0.00920072
-0.00858497
-0.00791582
-0.00719391
-0.00641997
-0.00559481
-0.00471936
-0.00379458
-0.00282153
-0.00180135
-0.000735247
0.00037552
0.00152961
0.00272564
0.00396214
0.00523761
0.00655047
0.0078991
0.00928182
0.0106969
0.0121426
0.0136171
0.0151184
0.0166449
0.0181944
0.0197651
0.0213549
0.0229618
0.0245837
0.0262187
0.0278645
0.029519
0.0311801
0.0328457
0.0345135
0.0361813
0.0378471
0.0395086
0.0411635
0.0428097
0.0444451
0.0460673
0.0476743
0.0492639
0.0508338
0.0523821
0.0539065
0.0554051
0.0568757
0.0583163
0.059725
0.0610999
0.0624389
0.0637404
0.0650024
0.0662233
0.0674014
0.068535
0.0696226
0.0706628
0.0716542
0.0725954
0.0734852
0.0743226
0.0751064
0.0758357
0.0765096
0.0771276
0.0776888
0.0781929
0.0786395
0.0790283
0.0793592
0.0796323
0.0798476
0.0800055
0.0801064
0.080151
0.08014
0.0800743
0.079955
0.0797835
0.0795611
0.0792894
0.0789704
0.0786058
0.0781981
0.0777495
0.0772626
0.0767403
0.0761854
0.0756013
0.0749912
0.0743588
0.0737079
0.0730425
0.0723667
0.0716849
0.0710017
0.0703218
0.06965
0.0689913
0.0683506
0.0677333
0.0671443
0.066589
0.0660723
0.0655995
0.0651755
0.0648051
0.0644934
0.0642457
0.0640649
0.0639494
0.00426861
0.0040331
0.0037609
0.00344205
0.00306959
0.00264851
0.00218379
0.00167973
0.00114076
0.000571463
-2.35097e-05
-0.000639487
-0.00127181
-0.00191585
-0.00256707
-0.00322102
-0.00387338
-0.00451999
-0.0051568
-0.00577997
-0.0063858
-0.00697081
-0.00753166
-0.00806524
-0.00856861
-0.00903904
-0.00947398
-0.00987108
-0.0102282
-0.0105432
-0.0108145
-0.0110402
-0.011219
-0.0113496
-0.0114307
-0.0114613
-0.0114406
-0.0113679
-0.0112425
-0.011064
-0.0108322
-0.0105467
-0.0102075
-0.00981457
-0.00936811
-0.00886831
-0.00831553
-0.00771018
-0.0070528
-0.00634401
-0.00558451
-0.0047751
-0.00391664
-0.00301009
-0.00205648
-0.00105691
-1.25284e-05
0.00107542
0.00220564
0.00337679
0.00458744
0.00583612
0.00712131
0.00844142
0.00979482
0.0111798
0.0125947
0.0140377
0.0155071
0.0170008
0.0185172
0.0200543
0.02161
0.0231825
0.0247697
0.0263696
0.0279801
0.0295992
0.0312248
0.0328547
0.0344868
0.0361191
0.0377493
0.0393753
0.040995
0.0426062
0.0442068
0.0457946
0.0473676
0.0489235
0.0504604
0.051976
0.0534685
0.0549356
0.0563755
0.0577862
0.0591657
0.0605121
0.0618237
0.0630985
0.0643348
0.065531
0.0666855
0.0677965
0.0688627
0.0698826
0.0708549
0.0717782
0.0726514
0.0734734
0.0742432
0.0749599
0.0756226
0.0762306
0.0767834
0.0772804
0.0777214
0.078106
0.0784342
0.078706
0.0789215
0.0790811
0.0791851
0.0792342
0.0792291
0.0791707
0.0790601
0.0788984
0.0786872
0.0784279
0.0781222
0.0777722
0.0773799
0.0769475
0.0764777
0.0759729
0.0754361
0.0748703
0.0742786
0.0736646
0.0730316
0.0723837
0.0717245
0.0710582
0.0703891
0.0697214
0.0690596
0.0684084
0.0677723
0.0671561
0.0665643
0.0660017
0.0654729
0.0649825
0.0645348
0.0641341
0.0637853
0.063493
0.0632535
0.0630592
0.0052358
0.00491426
0.00457679
0.00420743
0.00379192
0.00333485
0.002841
0.00231403
0.00175776
0.00117624
0.00057359
-4.60116e-05
-0.000678382
-0.00131936
-0.00196482
-0.00261072
-0.00325313
-0.00388819
-0.00451221
-0.00512161
-0.00571298
-0.00628305
-0.00682872
-0.00734708
-0.00783539
-0.00829106
-0.0087117
-0.00909508
-0.00943914
-0.00974201
-0.0100019
-0.0102174
-0.0103869
-0.0105093
-0.0105834
-0.0106082
-0.010583
-0.0105069
-0.0103796
-0.0102005
-0.00996922
-0.00968569
-0.00934979
-0.00896153
-0.00852103
-0.00802852
-0.00748433
-0.00688887
-0.00624265
-0.00554627
-0.00480043
-0.00400588
-0.00316347
-0.00227413
-0.00133885
-0.000358704
0.000665187
0.00173162
0.00283935
0.00398704
0.00517332
0.00639676
0.00765587
0.00894911
0.0102749
0.0116316
0.0130175
0.0144308
0.01587
0.017333
0.0188181
0.0203235
0.0218472
0.0233873
0.0249418
0.0265087
0.028086
0.0296718
0.0312639
0.0328603
0.0344589
0.0360576
0.0376544
0.0392472
0.0408337
0.0424121
0.04398
0.0455356
0.0470766
0.048601
0.0501068
0.0515919
0.0530543
0.0544921
0.0559032
0.0572858
0.058638
0.0599579
0.0612436
0.0624936
0.0637059
0.0648791
0.0660114
0.0671014
0.0681476
0.0691485
0.0701029
0.0710096
0.0718673
0.072675
0.0734317
0.0741364
0.0747886
0.0753873
0.0759321
0.0764224
0.076858
0.0772386
0.0775641
0.0778345
0.07805
0.0782108
0.0783174
0.0783703
0.0783702
0.0783181
0.0782149
0.0780618
0.0778602
0.0776116
0.0773175
0.07698
0.0766008
0.0761824
0.0757269
0.0752369
0.0747151
0.0741645
0.0735879
0.0729887
0.0723701
0.0717356
0.0710891
0.0704341
0.0697747
0.0691148
0.0684587
0.0678103
0.0671742
0.0665543
0.0659551
0.0653807
0.0648352
0.0643227
0.063847
0.0634119
0.0630219
0.0626814
0.0623795
0.062103
0.0062538
0.00584431
0.00543913
0.00501639
0.00455457
0.00405799
0.00353128
0.00297751
0.00239993
0.00180207
0.00118759
0.000560176
-7.64251e-05
-0.000718476
-0.00136226
-0.00200412
-0.00264045
-0.00326773
-0.00388257
-0.00448167
-0.00506187
-0.00562014
-0.00615362
-0.00665957
-0.00713544
-0.00757881
-0.00798744
-0.00835923
-0.00869224
-0.00898469
-0.00923496
-0.00944156
-0.00960314
-0.00971852
-0.00978663
-0.00980654
-0.00977747
-0.00969877
-0.0095699
-0.00939043
-0.00916008
-0.00887865
-0.00854606
-0.00816233
-0.00772759
-0.00724206
-0.00670606
-0.00611998
-0.00548433
-0.00479969
-0.00406674
-0.00328621
-0.00245893
-0.0015858
-0.000667782
0.000294083
0.0012987
0.00234489
0.00343145
0.00455709
0.00572045
0.00692015
0.00815474
0.00942271
0.0107225
0.0120525
0.0134112
0.0147967
0.0162074
0.0176416
0.0190974
0.020573
0.0220666
0.0235762
0.0251
0.026636
0.0281822
0.0297366
0.0312973
0.0328623
0.0344294
0.0359968
0.0375622
0.0391238
0.0406793
0.0422268
0.0437643
0.0452896
0.0468007
0.0482956
0.0497724
0.0512289
0.0526633
0.0540736
0.0554579
0.0568143
0.0581409
0.059436
0.0606978
0.0619245
0.0631145
0.0642662
0.065378
0.0664483
0.0674758
0.0684591
0.069397
0.0702881
0.0711313
0.0719257
0.0726701
0.0733639
0.0740061
0.0745961
0.0751334
0.0756175
0.0760479
0.0764246
0.0767474
0.0770163
0.0772315
0.0773931
0.0775017
0.0775578
0.0775619
0.0775151
0.0774182
0.0772725
0.0770791
0.0768395
0.0765553
0.0762282
0.0758601
0.0754532
0.0750097
0.0745319
0.0740224
0.0734839
0.0729193
0.0723316
0.0717238
0.0710994
0.0704616
0.0698141
0.0691605
0.0685044
0.0678497
0.0672001
0.0665596
0.065932
0.0653211
0.0647308
0.0641646
0.0636261
0.0631188
0.0626456
0.0622111
0.0618194
0.0614526
0.0610919
0.00731229
0.00681385
0.0063393
0.005861
0.00535031
0.00481131
0.00424859
0.00366467
0.00306227
0.00244446
0.00181443
0.00117546
0.00053086
-0.000116024
-0.000761849
-0.0014033
-0.00203711
-0.00266007
-0.00326907
-0.00386108
-0.00443319
-0.0049826
-0.00550666
-0.00600284
-0.00646875
-0.00690215
-0.00730093
-0.00766314
-0.00798696
-0.0082707
-0.00851285
-0.008712
-0.00886689
-0.0089764
-0.0090395
-0.00905535
-0.00902318
-0.00894239
-0.00881247
-0.00863302
-0.00840378
-0.00812456
-0.00779529
-0.007416
-0.00698682
-0.00650797
-0.00597976
-0.00540258
-0.00477692
-0.00410337
-0.00338256
-0.00261523
-0.00180218
-0.000944287
-4.24888e-05
0.000902204
0.00188872
0.00291592
0.00398261
0.00508755
0.00622942
0.00740685
0.00861844
0.00986271
0.0111382
0.0124432
0.0137763
0.0151357
0.0165198
0.0179269
0.0193552
0.0208029
0.0222683
0.0237494
0.0252444
0.0267514
0.0282684
0.0297936
0.0313249
0.0328605
0.0343982
0.0359362
0.0374723
0.0390047
0.0405313
0.0420501
0.043559
0.0450561
0.0465393
0.0480068
0.0494564
0.0508863
0.0522946
0.0536794
0.0550387
0.0563707
0.0576736
0.0589457
0.0601851
0.0613903
0.0625595
0.0636912
0.0647839
0.0658361
0.0668463
0.0678132
0.0687357
0.0696123
0.0704422
0.0712242
0.0719573
0.0726408
0.0732738
0.0738557
0.0743859
0.074864
0.0752897
0.0756626
0.0759827
0.07625
0.0764646
0.0766267
0.0767368
0.0767954
0.076803
0.0767606
0.076669
0.0765293
0.0763427
0.0761106
0.0758345
0.0755161
0.0751572
0.0747597
0.0743258
0.0738577
0.0733578
0.0728288
0.0722732
0.0716938
0.0710937
0.0704759
0.0698436
0.0692
0.0685484
0.0678924
0.0672353
0.0665807
0.0659321
0.0652929
0.0646666
0.0640567
0.0634663
0.0628985
0.0623563
0.0618421
0.0613605
0.0609153
0.0604819
0.0600356
0.00840186
0.00781416
0.00726925
0.00673382
0.00617222
0.00558846
0.0049871
0.00437016
0.0037399
0.00309896
0.00245011
0.00179623
0.00114024
0.00048514
-0.000166089
-0.000810455
-0.001445
-0.00206681
-0.00267305
-0.00326093
-0.0038278
-0.00437109
-0.00488833
-0.0053772
-0.00583548
-0.00626109
-0.00665207
-0.00700659
-0.00732297
-0.00759962
-0.00783513
-0.00802817
-0.00817757
-0.00828226
-0.0083413
-0.00835389
-0.00831931
-0.00823699
-0.00810646
-0.00792737
-0.00769945
-0.00742255
-0.00709661
-0.00672166
-0.00629785
-0.00582538
-0.00530458
-0.00473583
-0.00411961
-0.00345649
-0.00274711
-0.00199217
-0.00119248
-0.000348868
0.000537732
0.00146634
0.0024359
0.00344532
0.00449343
0.005579
0.00670075
0.00785735
0.00904743
0.0102695
0.0115222
0.0128039
0.014113
0.0154481
0.0168073
0.0181891
0.0195917
0.0210134
0.0224524
0.0239069
0.025375
0.0268549
0.0283448
0.0298426
0.0313465
0.0328546
0.034365
0.0358756
0.0373845
0.0388897
0.0403893
0.0418813
0.0433637
0.0448345
0.0462918
0.0477337
0.0491582
0.0505635
0.0519475
0.0533085
0.0546447
0.0559541
0.057235
0.0584858
0.0597046
0.0608898
0.0620398
0.0631531
0.0642281
0.0652635
0.0662577
0.0672096
0.0681178
0.0689812
0.0697986
0.0705691
0.0712918
0.0719657
0.0725902
0.0731646
0.0736883
0.0741608
0.0745818
0.0749511
0.0752686
0.0755342
0.075748
0.0759103
0.0760215
0.0760819
0.0760923
0.0760534
0.0759661
0.0758313
0.0756502
0.0754242
0.0751547
0.0748432
0.0744915
0.0741014
0.073675
0.0732143
0.0727216
0.0721993
0.07165
0.0710762
0.0704808
0.0698665
0.0692363
0.0685933
0.0679406
0.0672811
0.0666183
0.0659551
0.0652949
0.0646408
0.0639959
0.063363
0.0627453
0.0621453
0.0615655
0.061008
0.0604772
0.0599769
0.0594756
0.0589433
0.00951401
0.00883726
0.00822146
0.0076278
0.00701379
0.00638338
0.00574118
0.0050888
0.00442806
0.00376121
0.00309065
0.00241888
0.00174849
0.00108212
0.000422456
-0.000227836
-0.00086608
-0.00148964
-0.00209594
-0.00268244
-0.00324671
-0.00378639
-0.00429924
-0.00478309
-0.00523592
-0.00565578
-0.00604088
-0.00638951
-0.0067001
-0.00697119
-0.00720145
-0.00738965
-0.00753469
-0.00763558
-0.00769145
-0.00770153
-0.00766519
-0.00758188
-0.00745117
-0.00727274
-0.00704635
-0.00677187
-0.00644926
-0.00607856
-0.00565991
-0.00519354
-0.00467977
-0.00411898
-0.00351166
-0.00285834
-0.00215967
-0.00141635
-0.000629145
0.000201108
0.00107351
0.00198709
0.00294083
0.00393365
0.00496441
0.00603191
0.00713491
0.00827209
0.0094421
0.0106435
0.011875
0.0131349
0.0144218
0.0157341
0.0170701
0.0184284
0.0198071
0.0212045
0.022619
0.0240486
0.0254918
0.0269465
0.0284111
0.0298835
0.031362
0.0328446
0.0343295
0.0358146
0.0372982
0.0387783
0.0402528
0.04172
0.0431778
0.0446243
0.0460577
0.0474759
0.0488772
0.0502596
0.0516212
0.0529603
0.0542751
0.0555637
0.0568244
0.0580554
0.0592552
0.0604221
0.0615544
0.0626507
0.0637096
0.0647294
0.065709
0.066647
0.0675421
0.0683933
0.0691994
0.0699594
0.0706724
0.0713376
0.0719542
0.0725216
0.0730392
0.0735065
0.0739232
0.074289
0.0746039
0.0748677
0.0750806
0.0752428
0.0753546
0.0754164
0.0754289
0.0753927
0.0753086
0.0751777
0.075001
0.0747797
0.0745152
0.0742091
0.0738628
0.0734782
0.0730571
0.0726017
0.0721139
0.071596
0.0710504
0.0704795
0.0698859
0.0692723
0.0686415
0.067996
0.0673389
0.066673
0.0660012
0.0653265
0.0646516
0.0639795
0.0633129
0.0626544
0.0620066
0.061372
0.0607523
0.0601495
0.0595678
0.0590111
0.0584414
0.0578232
0.010641
0.00987578
0.00918899
0.0085364
0.00786883
0.00719029
0.00650547
0.00581561
0.00512215
0.00442697
0.00373216
0.00303987
0.00235239
0.00167204
0.0010012
0.000342257
-0.000302379
-0.000930338
-0.00153928
-0.00212692
-0.00269102
-0.00322945
-0.00374013
-0.00422111
-0.00467051
-0.00508654
-0.00546755
-0.00581196
-0.00611831
-0.00638527
-0.00661159
-0.00679615
-0.0069379
-0.00703595
-0.00708948
-0.00709779
-0.0070603
-0.0069765
-0.00684601
-0.00666852
-0.00644385
-0.00617188
-0.00585258
-0.00548602
-0.00507235
-0.00461179
-0.00410467
-0.00355139
-0.00295241
-0.00230829
-0.00161964
-0.000887156
-0.0001116
0.000706208
0.00156538
0.00246498
0.00340401
0.00438139
0.00539603
0.00644674
0.0075323
0.00865144
0.00980282
0.0109851
0.0121968
0.0134365
0.0147027
0.0159939
0.0173085
0.0186448
0.0200013
0.0213763
0.022768
0.0241747
0.0255947
0.0270261
0.0284672
0.0299161
0.031371
0.0328301
0.0342914
0.0357531
0.0372133
0.03867
0.0401215
0.0415658
0.0430009
0.044425
0.0458363
0.0472328
0.0486126
0.049974
0.0513151
0.052634
0.0539291
0.0551986
0.0564407
0.0576537
0.0588361
0.0599861
0.0611023
0.0621832
0.0632271
0.0642329
0.0651991
0.0661244
0.0670076
0.0678476
0.0686433
0.0693938
0.070098
0.0707552
0.0713646
0.0719255
0.0724375
0.0729
0.0733127
0.0736752
0.0739875
0.0742496
0.0744614
0.0746231
0.0747351
0.0747978
0.0748117
0.0747775
0.0746959
0.0745678
0.0743943
0.0741765
0.0739157
0.0736133
0.0732708
0.0728899
0.0724724
0.0720201
0.071535
0.0710193
0.0704751
0.0699046
0.0693104
0.0686948
0.0680605
0.0674099
0.0667457
0.0660705
0.0653869
0.0646977
0.0640054
0.0633126
0.0626217
0.0619351
0.061255
0.0605834
0.0599221
0.0592723
0.0586386
0.0580248
0.0573863
0.0566827
0.0117758
0.010923
0.0101654
0.00945346
0.00873154
0.00800371
0.00727484
0.00654579
0.00581769
0.00509212
0.00437084
0.00365573
0.00294877
0.002252
0.00156753
0.000897492
0.000244023
-0.000390741
-0.00100469
-0.00159577
-0.00216194
-0.00270127
-0.00321187
-0.00369196
-0.0041398
-0.00455379
-0.00493238
-0.00527413
-0.00557771
-0.00584188
-0.00606549
-0.00624751
-0.00638699
-0.00648309
-0.00653507
-0.00654228
-0.00650421
-0.00642039
-0.00629048
-0.00611422
-0.00589143
-0.00562204
-0.00530603
-0.00494349
-0.00453459
-0.00407956
-0.00357872
-0.00303248
-0.00244132
-0.00180577
-0.00112646
-0.00040406
0.000360672
0.00116693
0.00201384
0.00290049
0.00382588
0.00478897