/*--------------------------------*- C++ -*----------------------------------*\
  =========                 |
  \\      /  F ield         | OpenFOAM: The Open Source CFD Toolbox
   \\    /   O peration     | Website:  https://openfoam.org
    \\  /    A nd           | Version:  7
     \\/     M anipulation  |
\*---------------------------------------------------------------------------*/
FoamFile
{
    version     2.0;
    format      ascii;
    class       surfaceScalarField;
    location    "0.3";
    object      phi;
}
// * * * * * * * * * * * * * * * * * * * * * * * * * * * * * * * * * * * * * //

dimensions      [0 3 -1 0 0 0 0];

internalField   nonuniform List<scalar> 
50880
(
5.73056e-12
-6.50459e-12
3.60921e-11
-3.03425e-11
8.10337e-11
-4.4951e-11
1.30693e-10
-4.96514e-11
1.77932e-10
-4.72347e-11
2.17785e-10
-3.98567e-11
2.46833e-10
-2.90539e-11
2.62767e-10
-1.59353e-11
2.64059e-10
-1.2908e-12
2.49743e-10
1.43172e-11
2.19259e-10
3.04824e-11
1.72348e-10
4.69074e-11
1.08977e-10
6.33693e-11
2.92783e-11
7.96986e-11
-6.6485e-11
9.57647e-11
-1.7795e-10
1.11466e-10
-3.04675e-10
1.26725e-10
-4.46155e-10
1.4148e-10
-6.0184e-10
1.55685e-10
-7.71143e-10
1.69303e-10
-9.53448e-10
1.82306e-10
-1.14812e-09
1.94673e-10
-1.35451e-09
2.06388e-10
-1.57195e-09
2.17441e-10
-1.79977e-09
2.27825e-10
-2.0373e-09
2.37534e-10
-2.28387e-09
2.46567e-10
-2.53879e-09
2.54925e-10
-2.8014e-09
2.62611e-10
-3.07103e-09
2.69628e-10
-3.34702e-09
2.75983e-10
-3.6287e-09
2.81681e-10
-3.91543e-09
2.8673e-10
-4.20657e-09
2.91139e-10
-4.50149e-09
2.94917e-10
-4.79956e-09
2.98073e-10
-5.10018e-09
3.00617e-10
-5.40274e-09
3.0256e-10
-5.70665e-09
3.03914e-10
-6.01134e-09
3.04688e-10
-6.31624e-09
3.04896e-10
-6.62079e-09
3.04549e-10
-6.92445e-09
3.03659e-10
-7.22669e-09
3.02238e-10
-7.52698e-09
3.003e-10
-7.82484e-09
2.97855e-10
-8.11976e-09
2.94918e-10
-8.41126e-09
2.91501e-10
-8.69887e-09
2.87616e-10
-8.98215e-09
2.83277e-10
-9.26064e-09
2.78495e-10
-9.53393e-09
2.73286e-10
-9.80159e-09
2.6766e-10
-1.00632e-08
2.61633e-10
-1.03184e-08
2.55216e-10
-1.05669e-08
2.48423e-10
-1.08081e-08
2.41266e-10
-1.10419e-08
2.33761e-10
-1.12678e-08
2.25918e-10
-1.14856e-08
2.17752e-10
-1.16948e-08
2.09277e-10
-1.18953e-08
2.00504e-10
-1.20868e-08
1.91449e-10
-1.22689e-08
1.82123e-10
-1.24415e-08
1.72541e-10
-1.26042e-08
1.62717e-10
-1.27568e-08
1.52664e-10
-1.28992e-08
1.42395e-10
-1.30312e-08
1.31925e-10
-1.31524e-08
1.21268e-10
-1.32629e-08
1.10437e-10
-1.33623e-08
9.94469e-11
-1.34506e-08
8.83118e-11
-1.35277e-08
7.70459e-11
-1.35933e-08
6.56636e-11
-1.36475e-08
5.41794e-11
-1.36901e-08
4.26081e-11
-1.37211e-08
3.09644e-11
-1.37403e-08
1.92636e-11
-1.37479e-08
7.52063e-12
-1.37436e-08
-4.24921e-12
-1.37276e-08
-1.60306e-11
-1.36998e-08
-2.7808e-11
-1.36602e-08
-3.95658e-11
-1.36089e-08
-5.12881e-11
-1.3546e-08
-6.2959e-11
-1.34714e-08
-7.45624e-11
-1.33853e-08
-8.6082e-11
-1.32878e-08
-9.75016e-11
-1.3179e-08
-1.08805e-10
-1.3059e-08
-1.19974e-10
-1.2928e-08
-1.30994e-10
-1.27862e-08
-1.41848e-10
-1.26337e-08
-1.52518e-10
-1.24707e-08
-1.62989e-10
-1.22974e-08
-1.73241e-10
-1.21142e-08
-1.83259e-10
-1.19212e-08
-1.93026e-10
-1.17186e-08
-2.02524e-10
-1.15069e-08
-2.11737e-10
-1.12863e-08
-2.20647e-10
-1.1057e-08
-2.29237e-10
-1.08195e-08
-2.3749e-10
-1.05741e-08
-2.4539e-10
-1.03212e-08
-2.5292e-10
-1.00612e-08
-2.60062e-10
-9.79436e-09
-2.66801e-10
-9.52124e-09
-2.73119e-10
-9.24224e-09
-2.79001e-10
-8.9578e-09
-2.84432e-10
-8.66841e-09
-2.89394e-10
-8.37453e-09
-2.93874e-10
-8.07668e-09
-2.97856e-10
-7.77536e-09
-3.01324e-10
-7.47109e-09
-3.04265e-10
-7.16443e-09
-3.06664e-10
-6.85592e-09
-3.08509e-10
-6.54613e-09
-3.09785e-10
-6.23565e-09
-3.10481e-10
-5.92507e-09
-3.10584e-10
-5.61498e-09
-3.10084e-10
-5.30601e-09
-3.0897e-10
-4.99878e-09
-3.07231e-10
-4.69392e-09
-3.04857e-10
-4.39208e-09
-3.01841e-10
-4.09391e-09
-2.98173e-10
-3.80006e-09
-2.93848e-10
-3.5112e-09
-2.88859e-10
-3.228e-09
-2.83201e-10
-2.95113e-09
-2.76872e-10
-2.68126e-09
-2.69868e-10
-2.41907e-09
-2.6219e-10
-2.16523e-09
-2.53836e-10
-1.92042e-09
-2.44808e-10
-1.68531e-09
-2.35111e-10
-1.46056e-09
-2.24749e-10
-1.24683e-09
-2.13733e-10
-1.04476e-09
-2.02073e-10
-8.54967e-10
-1.89786e-10
-6.78075e-10
-1.7689e-10
-5.14666e-10
-1.63408e-10
-3.65296e-10
-1.4937e-10
-2.30486e-10
-1.34812e-10
-1.10712e-10
-1.19777e-10
-6.39479e-12
-1.0432e-10
8.21149e-11
-8.85094e-11
1.54551e-10
-7.24328e-11
2.10755e-10
-5.61992e-11
2.50706e-10
-3.99466e-11
2.74561e-10
-2.38518e-11
2.82706e-10
-8.14416e-12
2.75829e-10
6.87363e-12
2.55028e-10
2.07957e-11
2.21958e-10
3.30658e-11
1.79055e-10
4.29038e-11
1.29844e-10
4.92159e-11
7.93423e-11
5.05052e-11
3.4619e-11
4.47205e-11
5.3303e-12
2.92823e-11
5.32419e-12
2.99604e-11
-3.64484e-11
1.01077e-10
-1.01477e-10
1.95342e-10
-1.39202e-10
2.95647e-10
-1.49948e-10
3.87627e-10
-1.39226e-10
4.6006e-10
-1.123e-10
5.04496e-10
-7.34896e-11
5.14746e-10
-2.61812e-11
4.86418e-10
2.70388e-11
4.16513e-10
8.42193e-11
3.03113e-10
1.43877e-10
1.45136e-10
2.0488e-10
-5.78478e-11
2.66352e-10
-3.05762e-10
3.27615e-10
-5.98128e-10
3.88134e-10
-9.3415e-10
4.4749e-10
-1.31278e-09
5.05353e-10
-1.73276e-09
5.61462e-10
-2.19269e-09
6.1561e-10
-2.69101e-09
6.67634e-10
-3.22611e-09
7.17406e-10
-3.79626e-09
7.64827e-10
-4.39969e-09
8.09822e-10
-5.03458e-09
8.52334e-10
-5.69908e-09
8.92323e-10
-6.39131e-09
9.29762e-10
-7.10938e-09
9.64636e-10
-7.85139e-09
9.96938e-10
-8.61545e-09
1.02667e-09
-9.39967e-09
1.05384e-09
-1.02022e-08
1.07847e-09
-1.10211e-08
1.10058e-09
-1.18545e-08
1.12018e-09
-1.27007e-08
1.13731e-09
-1.35578e-08
1.152e-09
-1.4424e-08
1.16428e-09
-1.52975e-08
1.17419e-09
-1.61767e-08
1.18177e-09
-1.70599e-08
1.18706e-09
-1.79453e-08
1.19009e-09
-1.88313e-08
1.19093e-09
-1.97164e-08
1.1896e-09
-2.05989e-08
1.18615e-09
-2.14773e-08
1.18063e-09
-2.23501e-08
1.1731e-09
-2.32158e-08
1.16358e-09
-2.4073e-08
1.15215e-09
-2.49203e-08
1.13883e-09
-2.57564e-08
1.12369e-09
-2.65799e-08
1.10677e-09
-2.73895e-08
1.08812e-09
-2.8184e-08
1.06779e-09
-2.89622e-08
1.04583e-09
-2.97229e-08
1.0223e-09
-3.04649e-08
9.97248e-10
-3.11872e-08
9.70718e-10
-3.18887e-08
9.42765e-10
-3.25684e-08
9.13442e-10
-3.32253e-08
8.82799e-10
-3.38584e-08
8.50888e-10
-3.44669e-08
8.17763e-10
-3.50498e-08
7.83474e-10
-3.56065e-08
7.48076e-10
-3.6136e-08
7.1162e-10
-3.66376e-08
6.74161e-10
-3.71106e-08
6.35751e-10
-3.75544e-08
5.96444e-10
-3.79683e-08
5.56294e-10
-3.83517e-08
5.15356e-10
-3.87042e-08
4.73684e-10
-3.90251e-08
4.31333e-10
-3.9314e-08
3.88359e-10
-3.95705e-08
3.44818e-10
-3.97942e-08
3.00766e-10
-3.99848e-08
2.5626e-10
-4.0142e-08
2.11358e-10
-4.02655e-08
1.66117e-10
-4.03551e-08
1.20595e-10
-4.04107e-08
7.48521e-11
-4.04321e-08
2.89466e-11
-4.04193e-08
-1.70613e-11
-4.03722e-08
-6.31112e-11
-4.02909e-08
-1.09142e-10
-4.01754e-08
-1.55093e-10
-4.00258e-08
-2.00901e-10
-3.98422e-08
-2.46503e-10
-3.96249e-08
-2.91838e-10
-3.93742e-08
-3.3684e-10
-3.90902e-08
-3.81447e-10
-3.87734e-08
-4.25594e-10
-3.84242e-08
-4.69216e-10
-3.80429e-08
-5.12248e-10
-3.76302e-08
-5.54624e-10
-3.71864e-08
-5.96279e-10
-3.67122e-08
-6.37147e-10
-3.62083e-08
-6.7716e-10
-3.56753e-08
-7.16253e-10
-3.5114e-08
-7.54359e-10
-3.45251e-08
-7.91411e-10
-3.39095e-08
-8.27344e-10
-3.32681e-08
-8.6209e-10
-3.26017e-08
-8.95583e-10
-3.19115e-08
-9.27758e-10
-3.11983e-08
-9.58548e-10
-3.04633e-08
-9.87889e-10
-2.97077e-08
-1.01572e-09
-2.89325e-08
-1.04196e-09
-2.81391e-08
-1.06657e-09
-2.73286e-08
-1.08948e-09
-2.65024e-08
-1.11061e-09
-2.56619e-08
-1.12993e-09
-2.48084e-08
-1.14735e-09
-2.39434e-08
-1.16284e-09
-2.30684e-08
-1.17632e-09
-2.21849e-08
-1.18775e-09
-2.12945e-08
-1.19708e-09
-2.03988e-08
-1.20424e-09
-1.94994e-08
-1.20919e-09
-1.8598e-08
-1.21189e-09
-1.76963e-08
-1.21228e-09
-1.6796e-08
-1.21033e-09
-1.5899e-08
-1.206e-09
-1.5007e-08
-1.19924e-09
-1.41218e-08
-1.19003e-09
-1.32453e-08
-1.17832e-09
-1.23794e-08
-1.16411e-09
-1.15259e-08
-1.14735e-09
-1.06867e-08
-1.12803e-09
-9.86376e-09
-1.10614e-09
-9.05897e-09
-1.08166e-09
-8.27425e-09
-1.05459e-09
-7.51151e-09
-1.02493e-09
-6.77266e-09
-9.92685e-10
-6.05959e-09
-9.57872e-10
-5.37419e-09
-9.20511e-10
-4.71831e-09
-8.80634e-10
-4.09376e-09
-8.38282e-10
-3.50232e-09
-7.93511e-10
-2.94572e-09
-7.46389e-10
-2.42561e-09
-6.97001e-10
-1.94356e-09
-6.45453e-10
-1.50106e-09
-5.91873e-10
-1.09945e-09
-5.36418e-10
-7.39947e-10
-4.7928e-10
-4.23568e-10
-4.20695e-10
-1.51121e-10
-3.60954e-10
7.6862e-11
-3.00415e-10
2.60184e-10
-2.39523e-10
3.99067e-10
-1.78831e-10
4.94255e-10
-1.19041e-10
5.47154e-10
-6.1043e-11
5.60007e-10
-5.97734e-12
5.3613e-10
4.46767e-11
4.80207e-10
8.89901e-11
3.98676e-10
1.24434e-10
3.00163e-10
1.47726e-10
1.95937e-10
1.54732e-10
1.00151e-10
1.40517e-10
2.92763e-11
1.00172e-10
3.45966e-11
4.47897e-11
-8.12474e-11
1.39038e-10
-1.95712e-10
2.56242e-10
-2.56396e-10
3.74749e-10
-2.68464e-10
4.76288e-10
-2.40776e-10
5.45992e-10
-1.82006e-10
5.72155e-10
-9.96493e-11
5.45821e-10
1.55167e-13
4.60358e-10
1.12501e-10
3.11027e-10
2.33545e-10
9.46404e-11
3.60259e-10
-1.90749e-10
4.90267e-10
-5.46087e-10
6.21692e-10
-9.71516e-10
7.53047e-10
-1.46653e-09
8.83149e-10
-2.03009e-09
1.01105e-09
-2.66074e-09
1.13601e-09
-3.35668e-09
1.2574e-09
-4.11583e-09
1.37476e-09
-4.93588e-09
1.48768e-09
-5.81434e-09
1.59587e-09
-6.7486e-09
1.69909e-09
-7.7359e-09
1.79713e-09
-8.77343e-09
1.88986e-09
-9.85828e-09
1.97718e-09
-1.09875e-08
2.059e-09
-1.21582e-08
2.13528e-09
-1.33672e-08
2.20598e-09
-1.46116e-08
2.27111e-09
-1.58885e-08
2.33067e-09
-1.71947e-08
2.38468e-09
-1.85273e-08
2.43319e-09
-1.98833e-08
2.47623e-09
-2.12599e-08
2.51385e-09
-2.2654e-08
2.54613e-09
-2.40629e-08
2.57313e-09
-2.54836e-08
2.59493e-09
-2.69135e-08
2.6116e-09
-2.83496e-08
2.62324e-09
-2.97895e-08
2.62992e-09
-3.12303e-08
2.63174e-09
-3.26695e-08
2.62881e-09
-3.41046e-08
2.6212e-09
-3.5533e-08
2.60904e-09
-3.69523e-08
2.59241e-09
-3.83601e-08
2.57142e-09
-3.97541e-08
2.54617e-09
-4.11321e-08
2.51678e-09
-4.24917e-08
2.48335e-09
-4.3831e-08
2.44599e-09
-4.51476e-08
2.4048e-09
-4.64398e-08
2.35991e-09
-4.77053e-08
2.31141e-09
-4.89425e-08
2.25943e-09
-5.01493e-08
2.20407e-09
-5.1324e-08
2.14544e-09
-5.24649e-08
2.08367e-09
-5.35703e-08
2.01886e-09
-5.46387e-08
1.95113e-09
-5.56684e-08
1.8806e-09
-5.6658e-08
1.80737e-09
-5.76061e-08
1.73157e-09
-5.85113e-08
1.65331e-09
-5.93724e-08
1.57271e-09
-6.01881e-08
1.48988e-09
-6.09573e-08
1.40496e-09
-6.16789e-08
1.31804e-09
-6.23519e-08
1.22926e-09
-6.29753e-08
1.13874e-09
-6.35482e-08
1.04659e-09
-6.40698e-08
9.52945e-10
-6.45394e-08
8.5792e-10
-6.49562e-08
7.61642e-10
-6.53197e-08
6.64236e-10
-6.56292e-08
5.65828e-10
-6.58844e-08
4.66545e-10
-6.60848e-08
3.66516e-10
-6.62301e-08
2.65871e-10
-6.632e-08
1.6474e-10
-6.63543e-08
6.32538e-11
-6.63329e-08
-3.84539e-11
-6.62558e-08
-1.40249e-10
-6.61229e-08
-2.41997e-10
-6.59344e-08
-3.4356e-10
-6.56905e-08
-4.44802e-10
-6.53914e-08
-5.45584e-10
-6.50375e-08
-6.45767e-10
-6.46291e-08
-7.4521e-10
-6.41668e-08
-8.43771e-10
-6.36511e-08
-9.41307e-10
-6.30827e-08
-1.03768e-09
-6.24622e-08
-1.13273e-09
-6.17905e-08
-1.22634e-09
-6.10684e-08
-1.31833e-09
-6.0297e-08
-1.40859e-09
-5.94772e-08
-1.49694e-09
-5.86102e-08
-1.58326e-09
-5.76971e-08
-1.66739e-09
-5.67394e-08
-1.74918e-09
-5.57382e-08
-1.82849e-09
-5.46951e-08
-1.90518e-09
-5.36116e-08
-1.97909e-09
-5.24893e-08
-2.05009e-09
-5.13298e-08
-2.11802e-09
-5.0135e-08
-2.18275e-09
-4.89066e-08
-2.24413e-09
-4.76465e-08
-2.30202e-09
-4.63568e-08
-2.35629e-09
-4.50395e-08
-2.40679e-09
-4.36967e-08
-2.45339e-09
-4.23307e-08
-2.49597e-09
-4.09436e-08
-2.53439e-09
-3.95379e-08
-2.56852e-09
-3.8116e-08
-2.59824e-09
-3.66804e-08
-2.62343e-09
-3.52335e-08
-2.64397e-09
-3.37779e-08
-2.65977e-09
-3.23164e-08
-2.67069e-09
-3.08517e-08
-2.67665e-09
-2.93864e-08
-2.67755e-09
-2.79234e-08
-2.67329e-09
-2.64656e-08
-2.6638e-09
-2.50159e-08
-2.64898e-09
-2.35772e-08
-2.62877e-09
-2.21524e-08
-2.6031e-09
-2.07446e-08
-2.57193e-09
-1.93567e-08
-2.53519e-09
-1.79919e-08
-2.49285e-09
-1.66532e-08
-2.44488e-09
-1.53435e-08
-2.39127e-09
-1.40661e-08
-2.33202e-09
-1.28239e-08
-2.26712e-09
-1.162e-08
-2.1966e-09
-1.04574e-08
-2.12051e-09
-9.33896e-09
-2.03891e-09
-8.26772e-09
-1.95187e-09
-7.24649e-09
-1.85951e-09
-6.27805e-09
-1.76195e-09
-5.36508e-09
-1.65937e-09
-4.51012e-09
-1.55197e-09
-3.71558e-09
-1.43999e-09
-2.98369e-09
-1.32376e-09
-2.31648e-09
-1.20362e-09
-1.71571e-09
-1.08005e-09
-1.18283e-09
-9.53569e-10
-7.18932e-10
-8.24855e-10
-3.24636e-10
-6.94713e-10
-2.73632e-14
-5.64136e-10
2.5549e-10
-4.3435e-10
4.43323e-10
-3.06874e-10
5.65891e-10
-1.83608e-10
6.26856e-10
-6.69367e-11
6.314e-10
4.01377e-11
5.86567e-10
1.33825e-10
5.01636e-10
2.09358e-10
3.88526e-10
2.60823e-10
2.62146e-10
2.81104e-10
1.40536e-10
2.6213e-10
4.47069e-11
1.96008e-10
7.9305e-11
4.96661e-11
-1.30904e-10
1.50195e-10
-2.96233e-10
2.68975e-10
-3.75185e-10
3.80821e-10
-3.80319e-10
4.64931e-10
-3.24889e-10
5.04242e-10
-2.21314e-10
4.85032e-10
-8.04358e-11
3.96529e-10
8.86578e-11
2.30505e-10
2.78522e-10
-1.90884e-11
4.83134e-10
-3.56477e-10
6.97644e-10
-7.84366e-10
9.18156e-10
-1.3042e-09
1.14153e-09
-1.9164e-09
1.36525e-09
-2.62051e-09
1.58726e-09
-3.41538e-09
1.80592e-09
-4.29927e-09
2.0199e-09
-5.26997e-09
2.2281e-09
-6.32487e-09
2.42966e-09
-7.46105e-09
2.62386e-09
-8.67532e-09
2.81015e-09
-9.96428e-09
2.98805e-09
-1.13244e-08
3.15721e-09
-1.27518e-08
3.31736e-09
-1.42429e-08
3.46827e-09
-1.57937e-08
3.60979e-09
-1.74003e-08
3.74182e-09
-1.90586e-08
3.86428e-09
-2.07646e-08
3.97715e-09
-2.25144e-08
4.08043e-09
-2.43038e-08
4.17413e-09
-2.61289e-08
4.25831e-09
-2.79857e-08
4.33303e-09
-2.98703e-08
4.39838e-09
-3.17786e-08
4.45445e-09
-3.37068e-08
4.50136e-09
-3.56511e-08
4.53923e-09
-3.76077e-08
4.56818e-09
-3.95728e-08
4.58837e-09
-4.15429e-08
4.59994e-09
-4.35142e-08
4.60305e-09
-4.54832e-08
4.59785e-09
-4.74465e-08
4.58452e-09
-4.94007e-08
4.56322e-09
-5.13424e-08
4.53413e-09
-5.32684e-08
4.49742e-09
-5.51755e-08
4.45328e-09
-5.70606e-08
4.4019e-09
-5.89207e-08
4.34345e-09
-6.07529e-08
4.27812e-09
-6.25542e-08
4.20611e-09
-6.43219e-08
4.12761e-09
-6.60533e-08
4.0428e-09
-6.77457e-08
3.95189e-09
-6.93967e-08
3.85507e-09
-7.10038e-08
3.75254e-09
-7.25647e-08
3.64449e-09
-7.40769e-08
3.53113e-09
-7.55384e-08
3.41264e-09
-7.69471e-08
3.28925e-09
-7.83008e-08
3.16114e-09
-7.95978e-08
3.02852e-09
-8.08361e-08
2.8916e-09
-8.2014e-08
2.75057e-09
-8.31297e-08
2.60566e-09
-8.41818e-08
2.45706e-09
-8.51688e-08
2.30498e-09
-8.60891e-08
2.14964e-09
-8.69416e-08
1.99124e-09
-8.77251e-08
1.83e-09
-8.84383e-08
1.66614e-09
-8.90802e-08
1.49987e-09
-8.965e-08
1.33141e-09
-9.01467e-08
1.16097e-09
-9.05697e-08
9.88792e-10
-9.09182e-08
8.15083e-10
-9.11918e-08
6.40073e-10
-9.13899e-08
4.63989e-10
-9.15122e-08
2.87062e-10
-9.15585e-08
1.09521e-10
-9.15285e-08
-6.84002e-11
-9.14223e-08
-2.46466e-10
-9.12399e-08
-4.24441e-10
-9.09813e-08
-6.02085e-10
-9.0647e-08
-7.79157e-10
-9.02372e-08
-9.55415e-10
-8.97523e-08
-1.13061e-09
-8.9193e-08
-1.30451e-09
-8.85599e-08
-1.47685e-09
-8.78538e-08
-1.64739e-09
-8.70756e-08
-1.81588e-09
-8.62263e-08
-1.98206e-09
-8.5307e-08
-2.14568e-09
-8.43188e-08
-2.3065e-09
-8.32631e-08
-2.46424e-09
-8.21414e-08
-2.61866e-09
-8.09552e-08
-2.7695e-09
-7.97061e-08
-2.91651e-09
-7.83958e-08
-3.05943e-09
-7.70263e-08
-3.198e-09
-7.55995e-08
-3.33197e-09
-7.41175e-08
-3.46109e-09
-7.25825e-08
-3.5851e-09
-7.09968e-08
-3.70375e-09
-6.93627e-08
-3.81679e-09
-6.76829e-08
-3.92398e-09
-6.59598e-08
-4.02507e-09
-6.41963e-08
-4.11982e-09
-6.23951e-08
-4.208e-09
-6.05591e-08
-4.28937e-09
-5.86914e-08
-4.3637e-09
-5.6795e-08
-4.43077e-09
-5.48732e-08
-4.49035e-09
-5.29292e-08
-4.54225e-09
-5.09663e-08
-4.58625e-09
-4.89882e-08
-4.62214e-09
-4.69982e-08
-4.64975e-09
-4.5e-08
-4.66889e-09
-4.29973e-08
-4.67938e-09
-4.09938e-08
-4.68105e-09
-3.89933e-08
-4.67375e-09
-3.69998e-08
-4.65734e-09
-3.50171e-08
-4.63169e-09
-3.30492e-08
-4.59666e-09
-3.11001e-08
-4.55217e-09
-2.91739e-08
-4.49811e-09
-2.72747e-08
-4.43441e-09
-2.54065e-08
-4.36101e-09
-2.35735e-08
-4.27788e-09
-2.17798e-08
-4.18499e-09
-2.00295e-08
-4.08234e-09
-1.83266e-08
-3.96997e-09
-1.66753e-08
-3.84793e-09
-1.50795e-08
-3.7163e-09
-1.35432e-08
-3.57521e-09
-1.20703e-08
-3.42482e-09
-1.06644e-08
-3.26533e-09
-9.32941e-09
-3.09699e-09
-8.06865e-09
-2.92013e-09
-6.88549e-09
-2.73512e-09
-5.78306e-09
-2.54243e-09
-4.7642e-09
-2.34262e-09
-3.83147e-09
-2.13636e-09
-2.98706e-09
-1.92446e-09
-2.23273e-09
-1.7079e-09
-1.56973e-09
-1.48785e-09
-9.98703e-10
-1.26574e-09
-5.19536e-10
-1.0433e-09
-1.31256e-10
-8.22625e-10
1.6817e-10
-6.06299e-10
3.82036e-10
-3.97478e-10
5.15147e-10
-2.00052e-10
5.74104e-10
-1.88198e-11
5.67625e-10
1.40311e-10
5.06881e-10
2.70109e-10
4.05853e-10
3.61849e-10
2.81689e-10
4.05264e-10
1.55018e-10
3.88795e-10
5.05442e-11
3.00478e-10
1.29853e-10
4.74642e-11
-1.78364e-10
1.4011e-10
-3.88888e-10
2.42483e-10
-4.77569e-10
3.27208e-10
-4.65047e-10
3.71919e-10
-3.69597e-10
3.58259e-10
-2.07649e-10
2.71315e-10
6.50941e-12
9.91884e-11
2.60782e-10
-1.67382e-10
5.45088e-10
-5.3536e-10
8.51108e-10
-1.00973e-09
1.17201e-09
-1.59379e-09
1.50222e-09
-2.28941e-09
1.83715e-09
-3.09724e-09
2.17308e-09
-4.01691e-09
2.50694e-09
-5.04722e-09
2.83623e-09
-6.18623e-09
3.15891e-09
-7.43142e-09
3.47328e-09
-8.77975e-09
3.77799e-09
-1.02278e-08
4.07191e-09
-1.17718e-08
4.35413e-09
-1.34076e-08
4.6239e-09
-1.51311e-08
4.88065e-09
-1.69376e-08
5.12391e-09
-1.88226e-08
5.35331e-09
-2.07814e-08
5.56858e-09
-2.28092e-08
5.76954e-09
-2.49009e-08
5.95604e-09
-2.70518e-08
6.12802e-09
-2.92568e-08
6.28544e-09
-3.1511e-08
6.42833e-09
-3.38094e-08
6.55675e-09
-3.61472e-08
6.67076e-09
-3.85193e-08
6.77049e-09
-4.09209e-08
6.85606e-09
-4.33472e-08
6.92765e-09
-4.57934e-08
6.98542e-09
-4.82548e-08
7.02957e-09
-5.07267e-08
7.06029e-09
-5.32046e-08
7.07782e-09
-5.56839e-08
7.08239e-09
-5.81603e-08
7.07422e-09
-6.06293e-08
7.05357e-09
-6.30868e-08
7.0207e-09
-6.55285e-08
6.97587e-09
-6.79505e-08
6.91934e-09
-7.03486e-08
6.8514e-09
-7.2719e-08
6.77232e-09
-7.50579e-08
6.68238e-09
-7.73617e-08
6.58187e-09
-7.96266e-08
6.47107e-09
-8.18493e-08
6.35029e-09
-8.40263e-08
6.21981e-09
-8.61544e-08
6.07994e-09
-8.82303e-08
5.93097e-09
-9.02509e-08
5.7732e-09
-9.22134e-08
5.60695e-09
-9.41148e-08
5.43251e-09
-9.59523e-08
5.25019e-09
-9.77234e-08
5.0603e-09
-9.94254e-08
4.86316e-09
-1.01056e-07
4.65907e-09
-1.02613e-07
4.44835e-09
-1.04093e-07
4.23132e-09
-1.05496e-07
4.00829e-09
-1.06819e-07
3.77959e-09
-1.08059e-07
3.54554e-09
-1.09216e-07
3.30646e-09
-1.10287e-07
3.06268e-09
-1.11272e-07
2.81454e-09
-1.12168e-07
2.56235e-09
-1.12975e-07
2.30646e-09
-1.13691e-07
2.0472e-09
-1.14314e-07
1.78491e-09
-1.14846e-07
1.51994e-09
-1.15283e-07
1.25262e-09
-1.15626e-07
9.83305e-10
-1.15875e-07
7.12349e-10
-1.16028e-07
4.40102e-10
-1.16085e-07
1.66922e-10
-1.16047e-07
-1.06833e-10
-1.15912e-07
-3.80801e-10
-1.15682e-07
-6.54616e-10
-1.15356e-07
-9.2791e-10
-1.14935e-07
-1.20031e-09
-1.14419e-07
-1.47145e-09
-1.13809e-07
-1.74094e-09
-1.13105e-07
-2.00841e-09
-1.12308e-07
-2.27348e-09
-1.1142e-07
-2.53576e-09
-1.10441e-07
-2.79487e-09
-1.09373e-07
-3.05042e-09
-1.08216e-07
-3.30202e-09
-1.06974e-07
-3.54928e-09
-1.05646e-07
-3.7918e-09
-1.04235e-07
-4.02921e-09
-1.02744e-07
-4.2611e-09
-1.01173e-07
-4.48708e-09
-9.9526e-08
-4.70675e-09
-9.78042e-08
-4.91973e-09
-9.60106e-08
-5.12563e-09
-9.41476e-08
-5.32406e-09
-9.22181e-08
-5.51462e-09
-9.02249e-08
-5.69694e-09
-8.8171e-08
-5.87064e-09
-8.60597e-08
-6.03533e-09
-8.38941e-08
-6.19065e-09
-8.16777e-08
-6.33623e-09
-7.9414e-08
-6.4717e-09
-7.71066e-08
-6.59672e-09
-7.47594e-08
-6.71092e-09
-7.23762e-08
-6.81398e-09
-6.9961e-08
-6.90556e-09
-6.75179e-08
-6.98533e-09
-6.50511e-08
-7.05299e-09
-6.25651e-08
-7.10824e-09
-6.0064e-08
-7.15077e-09
-5.75526e-08
-7.18032e-09
-5.50354e-08
-7.19662e-09
-5.2517e-08
-7.19943e-09
-5.00022e-08
-7.18852e-09
-4.74959e-08
-7.16366e-09
-4.50029e-08
-7.12467e-09
-4.25282e-08
-7.07136e-09
-4.00768e-08
-7.0036e-09
-3.76536e-08
-6.92123e-09
-3.52639e-08
-6.82417e-09
-3.29126e-08
-6.71232e-09
-3.06048e-08
-6.58566e-09
-2.83456e-08
-6.44414e-09
-2.61402e-08
-6.28781e-09
-2.39934e-08
-6.11672e-09
-2.19104e-08
-5.93098e-09
-1.98959e-08
-5.73073e-09
-1.7955e-08
-5.51618e-09
-1.60922e-08
-5.28761e-09
-1.43121e-08
-5.04535e-09
-1.26193e-08
-4.78983e-09
-1.10179e-08
-4.52155e-09
-9.51186e-09
-4.24114e-09
-8.10496e-09
-3.94933e-09
-6.80056e-09
-3.64702e-09
-5.60164e-09
-3.33527e-09
-4.51074e-09
-3.01535e-09
-3.52985e-09
-2.68879e-09
-2.66032e-09
-2.35738e-09
-1.90276e-09
-2.02331e-09
-1.25687e-09
-1.68919e-09
-7.21331e-10
-1.35816e-09
-2.93605e-10
-1.03402e-09
3.02897e-11
-7.2137e-10
2.56005e-10
-4.25769e-10
3.91136e-10
-1.53955e-10
4.45512e-10
8.59321e-11
4.31505e-10
2.84118e-10
3.64371e-10
4.28991e-10
2.62628e-10
5.07006e-10
1.48604e-10
5.02812e-10
4.94113e-11
3.99668e-10
1.79267e-10
4.03591e-11
-2.18728e-10
1.14082e-10
-4.62619e-10
1.8544e-10
-5.48928e-10
2.26281e-10
-5.05885e-10
2.13568e-10
-3.56879e-10
1.28343e-10
-1.22421e-10
-4.48979e-11
1.79748e-10
-3.18652e-10
5.34532e-10
-7.02773e-10
9.29206e-10
-1.20478e-09
1.35312e-09
-1.83016e-09
1.7974e-09
-2.58261e-09
2.25467e-09
-3.46429e-09
2.71883e-09
-4.47603e-09
3.18482e-09
-5.61754e-09
3.64844e-09
-6.88754e-09
4.10623e-09
-8.28396e-09
4.55532e-09
-9.804e-09
4.99333e-09
-1.14443e-08
5.41829e-09
-1.3201e-08
5.82859e-09
-1.50698e-08
6.22292e-09
-1.7046e-08
6.60017e-09
-1.91249e-08
6.95949e-09
-2.13011e-08
7.30016e-09
-2.35694e-08
7.62164e-09
-2.59244e-08
7.9235e-09
-2.83603e-08
8.20543e-09
-3.08714e-08
8.46722e-09
-3.34522e-08
8.70872e-09
-3.60966e-08
8.92988e-09
-3.87989e-08
9.13067e-09
-4.15533e-08
9.31116e-09
-4.4354e-08
9.47144e-09
-4.71952e-08
9.61164e-09
-5.00711e-08
9.73195e-09
-5.2976e-08
9.83255e-09
-5.59042e-08
9.91369e-09
-5.88503e-08
9.97562e-09
-6.18086e-08
1.00186e-08
-6.47738e-08
1.0043e-08
-6.77405e-08
1.00491e-08
-7.07034e-08
1.00371e-08
-7.36573e-08
1.00075e-08
-7.65973e-08
9.96067e-09
-7.95183e-08
9.89688e-09
-8.24155e-08
9.81653e-09
-8.52841e-08
9.72002e-09
-8.81195e-08
9.60772e-09
-9.09172e-08
9.48004e-09
-9.36727e-08
9.33738e-09
-9.63818e-08
9.18014e-09
-9.90402e-08
9.00874e-09
-1.01644e-07
8.82359e-09
-1.04189e-07
8.62511e-09
-1.06672e-07
8.41372e-09
-1.09089e-07
8.18986e-09
-1.11436e-07
7.95395e-09
-1.13709e-07
7.70642e-09
-1.15907e-07
7.44771e-09
-1.18025e-07
7.17826e-09
-1.2006e-07
6.8985e-09
-1.2201e-07
6.60889e-09
-1.23872e-07
6.30987e-09
-1.25642e-07
6.00189e-09
-1.27319e-07
5.68541e-09
-1.28901e-07
5.36087e-09
-1.30384e-07
5.02873e-09
-1.31767e-07
4.68947e-09
-1.33048e-07
4.34354e-09
-1.34225e-07
3.9914e-09
-1.35296e-07
3.63355e-09
-1.3626e-07
3.27043e-09
-1.37115e-07
2.90255e-09
-1.37861e-07
2.53037e-09
-1.38495e-07
2.15439e-09
-1.39017e-07
1.77509e-09
-1.39427e-07
1.39298e-09
-1.39723e-07
1.00854e-09
-1.39905e-07
6.22287e-10
-1.39973e-07
2.34719e-10
-1.39926e-07
-1.53651e-10
-1.39765e-07
-5.42307e-10
-1.39489e-07
-9.30731e-10
-1.39098e-07
-1.3184e-09
-1.38594e-07
-1.70478e-09
-1.37976e-07
-2.08936e-09
-1.37245e-07
-2.47158e-09
-1.36403e-07
-2.85092e-09
-1.35449e-07
-3.22684e-09
-1.34386e-07
-3.59878e-09
-1.33215e-07
-3.9662e-09
-1.31937e-07
-4.32856e-09
-1.30554e-07
-4.6853e-09
-1.29067e-07
-5.03587e-09
-1.27479e-07
-5.37971e-09
-1.25792e-07
-5.71626e-09
-1.24008e-07
-6.04498e-09
-1.2213e-07
-6.36531e-09
-1.2016e-07
-6.67669e-09
-1.18101e-07
-6.97856e-09
-1.15956e-07
-7.27039e-09
-1.13729e-07
-7.5516e-09
-1.11422e-07
-7.82167e-09
-1.09039e-07
-8.08005e-09
-1.06583e-07
-8.32619e-09
-1.04059e-07
-8.55958e-09
-1.0147e-07
-8.77969e-09
-9.88202e-08
-8.98599e-09
-9.61139e-08
-9.17798e-09
-9.33555e-08
-9.35516e-09
-9.05494e-08
-9.51704e-09
-8.77002e-08
-9.66314e-09
-8.48128e-08
-9.79299e-09
-8.1892e-08
-9.90615e-09
-7.89428e-08
-1.00022e-08
-7.59703e-08
-1.00807e-08
-7.29799e-08
-1.01412e-08
-6.99769e-08
-1.01834e-08
-6.69667e-08
-1.02068e-08
-6.39549e-08
-1.02112e-08
-6.09471e-08
-1.01963e-08
-5.79491e-08
-1.01617e-08
-5.49666e-08
-1.01072e-08
-5.20054e-08
-1.00325e-08
-4.90716e-08
-9.93742e-09
-4.6171e-08
-9.82182e-09
-4.33097e-08
-9.68555e-09
-4.04935e-08
-9.52851e-09
-3.77285e-08
-9.35066e-09
-3.50206e-08
-9.15199e-09
-3.23759e-08
-8.93255e-09
-2.98002e-08
-8.69245e-09
-2.72993e-08
-8.43186e-09
-2.4879e-08
-8.15102e-09
-2.25449e-08
-7.85026e-09
-2.03025e-08
-7.52998e-09
-1.81572e-08
-7.1907e-09
-1.6114e-08
-6.83304e-09
-1.41778e-08
-6.45777e-09
-1.23531e-08
-6.06579e-09
-1.06443e-08
-5.65819e-09
-9.05503e-09
-5.23626e-09
-7.58877e-09
-4.80153e-09
-6.2483e-09
-4.35582e-09
-5.03579e-09
-3.90129e-09
-3.95267e-09
-3.44049e-09
-2.99952e-09
-2.97646e-09
-2.17591e-09
-2.5128e-09
-1.48025e-09
-2.05382e-09
-9.09626e-10
-1.60465e-09
-4.59575e-10
-1.17142e-09
-1.23876e-10
-7.61466e-10
1.05699e-10
-3.83527e-10
2.39644e-10
-4.80148e-11
2.91015e-10
2.3274e-10
2.75759e-10
4.44249e-10
2.13125e-10
5.69643e-10
1.26282e-10
5.89652e-10
4.33757e-11
4.82577e-10
2.22642e-10
2.98998e-11
-2.48633e-10
7.64062e-11
-5.09124e-10
1.0525e-10
-5.77767e-10
8.87117e-11
-4.89342e-10
3.88785e-12
-2.72054e-10
-1.68185e-10
4.96509e-11
-4.43113e-10
4.54673e-10
-8.33573e-10
9.24988e-10
-1.34965e-09
1.44528e-09
-1.99911e-09
2.00258e-09
-2.7877e-09
2.58598e-09
-3.71931e-09
3.18629e-09
-4.79627e-09
3.7958e-09
-6.01951e-09
4.40806e-09
-7.38874e-09
5.01767e-09
-8.90262e-09
5.62012e-09
-1.05589e-08
6.21162e-09
-1.23546e-08
6.78903e-09
-1.42861e-08
7.34972e-09
-1.6349e-08
7.89151e-09
-1.85387e-08
8.4126e-09
-2.085e-08
8.91149e-09
-2.32775e-08
9.38698e-09
-2.58154e-08
9.83808e-09
-2.84578e-08
1.0264e-08
-3.11984e-08
1.06642e-08
-3.40311e-08
1.10381e-08
-3.69492e-08
1.13854e-08
-3.99464e-08
1.17059e-08
-4.30161e-08
1.19996e-08
-4.61517e-08
1.22662e-08
-4.93464e-08
1.25059e-08
-5.25938e-08
1.27188e-08
-5.58872e-08
1.2905e-08
-5.922e-08
1.30648e-08
-6.25858e-08
1.31983e-08
-6.5978e-08
1.33059e-08
-6.93903e-08
1.33879e-08
-7.28164e-08
1.34447e-08
-7.62499e-08
1.34766e-08
-7.96849e-08
1.3484e-08
-8.31151e-08
1.34674e-08
-8.65348e-08
1.34272e-08
-8.9938e-08
1.33639e-08
-9.3319e-08
1.32779e-08
-9.66724e-08
1.31698e-08
-9.99924e-08
1.30401e-08
-1.03274e-07
1.28892e-08
-1.06512e-07
1.27178e-08
-1.097e-07
1.25262e-08
-1.12835e-07
1.23151e-08
-1.15912e-07
1.20851e-08
-1.18925e-07
1.18366e-08
-1.2187e-07
1.15702e-08
-1.24743e-07
1.12865e-08
-1.27539e-07
1.09861e-08
-1.30254e-07
1.06695e-08
-1.32885e-07
1.03374e-08
-1.35428e-07
9.99019e-09
-1.37878e-07
9.62862e-09
-1.40233e-07
9.25323e-09
-1.42489e-07
8.86462e-09
-1.44642e-07
8.46337e-09
-1.4669e-07
8.05011e-09
-1.4863e-07
7.62543e-09
-1.50459e-07
7.18995e-09
-1.52175e-07
6.74428e-09
-1.53775e-07
6.28905e-09
-1.55256e-07
5.82487e-09
-1.56617e-07
5.35239e-09
-1.57856e-07
4.87222e-09
-1.5897e-07
4.38501e-09
-1.59959e-07
3.89141e-09
-1.60821e-07
3.39206e-09
-1.61554e-07
2.88762e-09
-1.62158e-07
2.37874e-09
-1.62631e-07
1.8661e-09
-1.62973e-07
1.35035e-09
-1.63182e-07
8.32178e-10
-1.6326e-07
3.12263e-10
-1.63205e-07
-2.08711e-10
-1.63017e-07
-7.3005e-10
-1.62697e-07
-1.25106e-09
-1.62244e-07
-1.77103e-09
-1.6166e-07
-2.28927e-09
-1.60944e-07
-2.80505e-09
-1.60098e-07
-3.31766e-09
-1.59122e-07
-3.82638e-09
-1.58019e-07
-4.33049e-09
-1.56788e-07
-4.82924e-09
-1.55433e-07
-5.32192e-09
-1.53953e-07
-5.80778e-09
-1.52353e-07
-6.28609e-09
-1.50632e-07
-6.7561e-09
-1.48795e-07
-7.21707e-09
-1.46843e-07
-7.66826e-09
-1.44779e-07
-8.10892e-09
-1.42606e-07
-8.53832e-09
-1.40327e-07
-8.9557e-09
-1.37945e-07
-9.36033e-09
-1.35464e-07
-9.75148e-09
-1.32887e-07
-1.01284e-08
-1.30219e-07
-1.04904e-08
-1.27462e-07
-1.08367e-08
-1.24622e-07
-1.11666e-08
-1.21702e-07
-1.14794e-08
-1.18707e-07
-1.17744e-08
-1.15642e-07
-1.20509e-08
-1.12512e-07
-1.23083e-08
-1.09321e-07
-1.25458e-08
-1.06075e-07
-1.27629e-08
-1.0278e-07
-1.29588e-08
-9.94396e-08
-1.31331e-08
-9.60608e-08
-1.3285e-08
-9.2649e-08
-1.3414e-08
-8.92102e-08
-1.35195e-08
-8.57504e-08
-1.3601e-08
-8.22756e-08
-1.36581e-08
-7.87923e-08
-1.36901e-08
-7.53068e-08
-1.36968e-08
-7.18255e-08
-1.36776e-08
-6.8355e-08
-1.36322e-08
-6.49019e-08
-1.35602e-08
-6.1473e-08
-1.34614e-08
-5.80749e-08
-1.33355e-08
-5.47145e-08
-1.31822e-08
-5.13986e-08
-1.30015e-08
-4.8134e-08
-1.27931e-08
-4.49275e-08
-1.25571e-08
-4.1786e-08
-1.22935e-08
-3.87162e-08
-1.20024e-08
-3.57248e-08
-1.16839e-08
-3.28184e-08
-1.13383e-08
-3.00034e-08
-1.09659e-08
-2.72864e-08
-1.05673e-08
-2.46733e-08
-1.0143e-08
-2.21703e-08
-9.69374e-09
-1.9783e-08
-9.22036e-09
-1.75168e-08
-8.72394e-09
-1.53769e-08
-8.20573e-09
-1.33678e-08
-7.66721e-09
-1.14939e-08
-7.11014e-09
-9.75887e-09
-6.5366e-09
-8.16567e-09
-5.94903e-09
-6.71668e-09
-5.35028e-09
-5.41344e-09
-4.74375e-09
-4.25649e-09
-4.1334e-09
-3.24535e-09
-3.52395e-09
-2.37826e-09
-2.92091e-09
-1.65207e-09
-2.33083e-09
-1.06205e-09
-1.76144e-09
-6.01643e-10
-1.22187e-09
-2.62307e-10
-7.22865e-10
-3.32317e-11
-2.77096e-10
9.89158e-11
1.00593e-10
1.50289e-10
3.92875e-10
1.40304e-10
5.79633e-10
9.21927e-11
6.37762e-10
3.39318e-11
5.40843e-10
2.56571e-10
1.71877e-11
-2.65822e-10
3.04029e-11
-5.22334e-10
7.90442e-12
-5.55264e-10
-7.66766e-11
-4.0476e-10
-2.45433e-10
-1.033e-10
-5.16818e-10
3.21032e-10
-9.06122e-10
8.43974e-10
-1.42585e-09
1.44471e-09
-2.086e-09
2.10543e-09
-2.89434e-09
2.81093e-09
-3.85663e-09
3.54827e-09
-4.97681e-09
4.30647e-09
-6.25722e-09
5.07621e-09
-7.69879e-09
5.84962e-09
-9.30116e-09
6.62004e-09
-1.10629e-08
7.38185e-09
-1.29816e-08
8.13032e-09
-1.5054e-08
8.86145e-09
-1.72762e-08
9.57191e-09
-1.96436e-08
1.02589e-08
-2.2151e-08
1.092e-08
-2.47929e-08
1.15534e-08
-2.75634e-08
1.21574e-08
-3.04561e-08
1.27308e-08
-3.34644e-08
1.32724e-08
-3.65818e-08
1.37815e-08
-3.98011e-08
1.42574e-08
-4.31152e-08
1.46996e-08
-4.65171e-08
1.51078e-08
-4.99993e-08
1.54818e-08
-5.35546e-08
1.58215e-08
-5.71757e-08
1.6127e-08
-6.0855e-08
1.63982e-08
-6.45854e-08
1.66354e-08
-6.83595e-08
1.68388e-08
-7.217e-08
1.70088e-08
-7.60096e-08
1.71456e-08
-7.98713e-08
1.72496e-08
-8.37479e-08
1.73213e-08
-8.76325e-08
1.73611e-08
-9.15182e-08
1.73697e-08
-9.53982e-08
1.73474e-08
-9.92658e-08
1.72948e-08
-1.03114e-07
1.72126e-08
-1.06938e-07
1.71013e-08
-1.1073e-07
1.69616e-08
-1.14483e-07
1.6794e-08
-1.18194e-07
1.65993e-08
-1.21854e-07