/*--------------------------------*- C++ -*----------------------------------*\
  =========                 |
  \\      /  F ield         | OpenFOAM: The Open Source CFD Toolbox
   \\    /   O peration     | Website:  https://openfoam.org
    \\  /    A nd           | Version:  7
     \\/     M anipulation  |
\*---------------------------------------------------------------------------*/
FoamFile
{
    version     2.0;
    format      ascii;
    class       volVectorField;
    location    "0.3";
    object      U;
}
// * * * * * * * * * * * * * * * * * * * * * * * * * * * * * * * * * * * * * //

dimensions      [0 1 -1 0 0 0 0];

internalField   nonuniform List<vector> 
25600
(
(1.60082e-07 -2.2517e-07 0)
(2.80914e-06 -1.80458e-06 0)
(9.06079e-06 -2.8374e-06 0)
(1.69181e-05 -3.20802e-06 0)
(2.48774e-05 -3.1231e-06 0)
(3.19915e-05 -2.74496e-06 0)
(3.7609e-05 -2.18018e-06 0)
(4.12812e-05 -1.49948e-06 0)
(4.27091e-05 -7.4935e-07 0)
(4.16991e-05 3.96884e-08 0)
(3.81336e-05 8.47128e-07 0)
(3.19504e-05 1.6589e-06 0)
(2.31284e-05 2.46504e-06 0)
(1.16774e-05 3.25834e-06 0)
(-2.36974e-06 4.03343e-06 0)
(-1.89619e-05 4.7863e-06 0)
(-3.80338e-05 5.51398e-06 0)
(-5.95093e-05 6.21425e-06 0)
(-8.33035e-05 6.88552e-06 0)
(-0.000109325 7.52656e-06 0)
(-0.000137477 8.13653e-06 0)
(-0.000167659 8.71485e-06 0)
(-0.000199769 9.26114e-06 0)
(-0.0002337 9.7752e-06 0)
(-0.000269347 1.02569e-05 0)
(-0.000306601 1.07064e-05 0)
(-0.000345355 1.11237e-05 0)
(-0.0003855 1.15091e-05 0)
(-0.000426929 1.18628e-05 0)
(-0.000469534 1.21852e-05 0)
(-0.000513209 1.24767e-05 0)
(-0.000557847 1.27376e-05 0)
(-0.000603346 1.29685e-05 0)
(-0.0006496 1.31698e-05 0)
(-0.000696509 1.3342e-05 0)
(-0.000743972 1.34856e-05 0)
(-0.000791891 1.36011e-05 0)
(-0.000840169 1.36892e-05 0)
(-0.00088871 1.37503e-05 0)
(-0.00093742 1.3785e-05 0)
(-0.000986209 1.37939e-05 0)
(-0.00103499 1.37776e-05 0)
(-0.00108366 1.37366e-05 0)
(-0.00113216 1.36715e-05 0)
(-0.00118038 1.3583e-05 0)
(-0.00122825 1.34716e-05 0)
(-0.00127569 1.3338e-05 0)
(-0.00132262 1.31826e-05 0)
(-0.00136897 1.30061e-05 0)
(-0.00141466 1.28092e-05 0)
(-0.00145962 1.25923e-05 0)
(-0.00150378 1.23561e-05 0)
(-0.00154707 1.21012e-05 0)
(-0.00158943 1.18282e-05 0)
(-0.00163079 1.15377e-05 0)
(-0.0016711 1.12303e-05 0)
(-0.00171029 1.09066e-05 0)
(-0.0017483 1.05671e-05 0)
(-0.00178509 1.02125e-05 0)
(-0.0018206 9.84341e-06 0)
(-0.00185477 9.46038e-06 0)
(-0.00188756 9.06402e-06 0)
(-0.00191893 8.65492e-06 0)
(-0.00194883 8.2337e-06 0)
(-0.00197721 7.80095e-06 0)
(-0.00200404 7.35729e-06 0)
(-0.00202928 6.90334e-06 0)
(-0.00205289 6.43969e-06 0)
(-0.00207485 5.96697e-06 0)
(-0.00209511 5.4858e-06 0)
(-0.00211365 4.9968e-06 0)
(-0.00213045 4.50063e-06 0)
(-0.00214547 3.9979e-06 0)
(-0.00215871 3.48927e-06 0)
(-0.00217013 2.97536e-06 0)
(-0.00217972 2.45681e-06 0)
(-0.00218747 1.93429e-06 0)
(-0.00219335 1.40845e-06 0)
(-0.00219737 8.7998e-07 0)
(-0.00219952 3.49553e-07 0)
(-0.00219978 -1.82149e-07 0)
(-0.00219816 -7.14439e-07 0)
(-0.00219465 -1.24662e-06 0)
(-0.00218926 -1.778e-06 0)
(-0.00218199 -2.30786e-06 0)
(-0.00217285 -2.83547e-06 0)
(-0.00216184 -3.36012e-06 0)
(-0.00214899 -3.88109e-06 0)
(-0.0021343 -4.39765e-06 0)
(-0.00211779 -4.90904e-06 0)
(-0.00209948 -5.41452e-06 0)
(-0.0020794 -5.91334e-06 0)
(-0.00205756 -6.40473e-06 0)
(-0.002034 -6.88794e-06 0)
(-0.00200876 -7.3622e-06 0)
(-0.00198185 -7.82674e-06 0)
(-0.00195332 -8.28077e-06 0)
(-0.00192321 -8.72353e-06 0)
(-0.00189155 -9.15424e-06 0)
(-0.0018584 -9.57213e-06 0)
(-0.0018238 -9.97643e-06 0)
(-0.00178779 -1.03664e-05 0)
(-0.00175044 -1.07411e-05 0)
(-0.0017118 -1.11e-05 0)
(-0.00167192 -1.14421e-05 0)
(-0.00163086 -1.17668e-05 0)
(-0.0015887 -1.20732e-05 0)
(-0.00154549 -1.23606e-05 0)
(-0.0015013 -1.26283e-05 0)
(-0.00145621 -1.28756e-05 0)
(-0.00141028 -1.31017e-05 0)
(-0.0013636 -1.33059e-05 0)
(-0.00131624 -1.34875e-05 0)
(-0.00126829 -1.36458e-05 0)
(-0.00121982 -1.37801e-05 0)
(-0.00117092 -1.38898e-05 0)
(-0.00112169 -1.39742e-05 0)
(-0.0010722 -1.40327e-05 0)
(-0.00102256 -1.40647e-05 0)
(-0.00097285 -1.40697e-05 0)
(-0.000923172 -1.40471e-05 0)
(-0.000873623 -1.39964e-05 0)
(-0.000824303 -1.3917e-05 0)
(-0.000775311 -1.38086e-05 0)
(-0.00072675 -1.36705e-05 0)
(-0.000678724 -1.35024e-05 0)
(-0.000631336 -1.33039e-05 0)
(-0.000584694 -1.30747e-05 0)
(-0.000538903 -1.28144e-05 0)
(-0.000494071 -1.2523e-05 0)
(-0.000450305 -1.22002e-05 0)
(-0.000407714 -1.18458e-05 0)
(-0.000366406 -1.14597e-05 0)
(-0.000326489 -1.10418e-05 0)
(-0.00028807 -1.05921e-05 0)
(-0.000251256 -1.01108e-05 0)
(-0.000216152 -9.59801e-06 0)
(-0.000182864 -9.05416e-06 0)
(-0.000151491 -8.47971e-06 0)
(-0.000122134 -7.87526e-06 0)
(-9.48885e-05 -7.24159e-06 0)
(-6.98462e-05 -6.57966e-06 0)
(-4.70937e-05 -5.89073e-06 0)
(-2.67109e-05 -5.17634e-06 0)
(-8.77e-06 -4.43852e-06 0)
(6.6665e-06 -3.6799e-06 0)
(1.95485e-05 -2.90392e-06 0)
(2.9841e-05 -2.11507e-06 0)
(3.75285e-05 -1.31915e-06 0)
(4.26202e-05 -5.23946e-07 0)
(4.5157e-05 2.60107e-07 0)
(4.52218e-05 1.01851e-06 0)
(4.29532e-05 1.73061e-06 0)
(3.85656e-05 2.36592e-06 0)
(3.23789e-05 2.87797e-06 0)
(2.48609e-05 3.19606e-06 0)
(1.66776e-05 3.21526e-06 0)
(8.78054e-06 2.77953e-06 0)
(2.64494e-06 1.69676e-06 0)
(1.22779e-07 1.2259e-07 0)
(1.76754e-06 -2.90707e-06 0)
(9.36179e-06 -9.4325e-06 0)
(2.31192e-05 -1.34259e-05 0)
(3.93583e-05 -1.47293e-05 0)
(5.52341e-05 -1.3961e-05 0)
(6.8755e-05 -1.16912e-05 0)
(7.83832e-05 -8.3592e-06 0)
(8.29623e-05 -4.29372e-06 0)
(8.16599e-05 2.64438e-07 0)
(7.3898e-05 5.14029e-06 0)
(5.92937e-05 1.02052e-05 0)
(3.76148e-05 1.53635e-05 0)
(8.74656e-06 2.05431e-05 0)
(-2.73346e-05 2.56888e-05 0)
(-7.05806e-05 3.07579e-05 0)
(-0.000120887 3.57173e-05 0)
(-0.000178103 4.05414e-05 0)
(-0.000242043 4.52099e-05 0)
(-0.000312492 4.97075e-05 0)
(-0.000389214 5.40218e-05 0)
(-0.000471954 5.81436e-05 0)
(-0.000560442 6.20657e-05 0)
(-0.000654399 6.57828e-05 0)
(-0.000753537 6.9291e-05 0)
(-0.000857561 7.25878e-05 0)
(-0.000966173 7.56716e-05 0)
(-0.00107907 7.85417e-05 0)
(-0.00119595 8.11981e-05 0)
(-0.00131651 8.36414e-05 0)
(-0.00144045 8.58729e-05 0)
(-0.00156746 8.78941e-05 0)
(-0.00169724 8.97069e-05 0)
(-0.0018295 9.13138e-05 0)
(-0.00196395 9.27173e-05 0)
(-0.00210028 9.39201e-05 0)
(-0.00223821 9.49253e-05 0)
(-0.00237746 9.5736e-05 0)
(-0.00251775 9.63555e-05 0)
(-0.00265881 9.67874e-05 0)
(-0.00280036 9.70352e-05 0)
(-0.00294214 9.71026e-05 0)
(-0.00308389 9.69932e-05 0)
(-0.00322535 9.6711e-05 0)
(-0.00336628 9.62598e-05 0)
(-0.00350644 9.56435e-05 0)
(-0.00364558 9.48662e-05 0)
(-0.00378347 9.39319e-05 0)
(-0.00391989 9.28446e-05 0)
(-0.00405461 9.16083e-05 0)
(-0.00418743 9.02271e-05 0)
(-0.00431813 8.87052e-05 0)
(-0.00444651 8.70467e-05 0)
(-0.00457237 8.52557e-05 0)
(-0.00469552 8.33364e-05 0)
(-0.00481578 8.1293e-05 0)
(-0.00493297 7.91297e-05 0)
(-0.00504692 7.68506e-05 0)
(-0.00515745 7.44601e-05 0)
(-0.00526441 7.19621e-05 0)
(-0.00536765 6.93611e-05 0)
(-0.00546702 6.66613e-05 0)
(-0.00556237 6.38669e-05 0)
(-0.00565357 6.09822e-05 0)
(-0.00574049 5.80114e-05 0)
(-0.00582301 5.4959e-05 0)
(-0.00590101 5.18293e-05 0)
(-0.00597438 4.86266e-05 0)
(-0.00604302 4.53552e-05 0)
(-0.00610682 4.20197e-05 0)
(-0.00616571 3.86244e-05 0)
(-0.0062196 3.51738e-05 0)
(-0.0062684 3.16725e-05 0)
(-0.00631205 2.81249e-05 0)
(-0.00635048 2.45357e-05 0)
(-0.00638364 2.09094e-05 0)
(-0.00641147 1.72508e-05 0)
(-0.00643394 1.35644e-05 0)
(-0.00645099 9.85502e-06 0)
(-0.00646262 6.12745e-06 0)
(-0.00646878 2.3865e-06 0)
(-0.00646947 -1.36297e-06 0)
(-0.00646468 -5.11605e-06 0)
(-0.00645441 -8.86778e-06 0)
(-0.00643866 -1.26132e-05 0)
(-0.00641744 -1.63472e-05 0)
(-0.00639078 -2.00647e-05 0)
(-0.00635871 -2.37606e-05 0)
(-0.00632125 -2.74298e-05 0)
(-0.00627846 -3.10669e-05 0)
(-0.00623039 -3.46669e-05 0)
(-0.00617709 -3.82243e-05 0)
(-0.00611863 -4.17339e-05 0)
(-0.00605509 -4.51904e-05 0)
(-0.00598654 -4.85884e-05 0)
(-0.00591309 -5.19224e-05 0)
(-0.00583481 -5.51871e-05 0)
(-0.00575183 -5.8377e-05 0)
(-0.00566426 -6.14867e-05 0)
(-0.00557221 -6.45108e-05 0)
(-0.00547581 -6.74438e-05 0)
(-0.00537521 -7.02803e-05 0)
(-0.00527055 -7.30148e-05 0)
(-0.00516198 -7.56421e-05 0)
(-0.00504967 -7.81566e-05 0)
(-0.00493377 -8.05531e-05 0)
(-0.00481448 -8.28262e-05 0)
(-0.00469196 -8.49706e-05 0)
(-0.00456643 -8.69813e-05 0)
(-0.00443806 -8.8853e-05 0)
(-0.00430707 -9.05807e-05 0)
(-0.00417368 -9.21595e-05 0)
(-0.00403811 -9.35844e-05 0)
(-0.00390057 -9.48506e-05 0)
(-0.00376131 -9.59535e-05 0)
(-0.00362057 -9.68886e-05 0)
(-0.0034786 -9.76512e-05 0)
(-0.00333564 -9.82373e-05 0)
(-0.00319196 -9.86426e-05 0)
(-0.00304783 -9.88632e-05 0)
(-0.00290351 -9.88953e-05 0)
(-0.00275929 -9.87354e-05 0)
(-0.00261544 -9.838e-05 0)
(-0.00247224 -9.78259e-05 0)
(-0.00232999 -9.70703e-05 0)
(-0.00218899 -9.61103e-05 0)
(-0.00204952 -9.49436e-05 0)
(-0.00191189 -9.35679e-05 0)
(-0.0017764 -9.19814e-05 0)
(-0.00164336 -9.01827e-05 0)
(-0.00151306 -8.81707e-05 0)
(-0.00138583 -8.59448e-05 0)
(-0.00126195 -8.35047e-05 0)
(-0.00114175 -8.08507e-05 0)
(-0.00102552 -7.79834e-05 0)
(-0.000913574 -7.49042e-05 0)
(-0.000806199 -7.16151e-05 0)
(-0.000703693 -6.81192e-05 0)
(-0.000606346 -6.44204e-05 0)
(-0.000514436 -6.05236e-05 0)
(-0.000428236 -5.64353e-05 0)
(-0.000348005 -5.21632e-05 0)
(-0.000273986 -4.7717e-05 0)
(-0.000206408 -4.31085e-05 0)
(-0.000145476 -3.83523e-05 0)
(-9.13699e-05 -3.34665e-05 0)
(-4.42388e-05 -2.84738e-05 0)
(-4.19151e-06 -2.34024e-05 0)
(2.87109e-05 -1.82878e-05 0)
(5.44668e-05 -1.31745e-05 0)
(7.3149e-05 -8.12003e-06 0)
(8.49234e-05 -3.19822e-06 0)
(9.00744e-05 1.49401e-06 0)
(8.90369e-05 5.82793e-06 0)
(8.24384e-05 9.63011e-06 0)
(7.11553e-05 1.26638e-05 0)
(5.638e-05 1.46077e-05 0)
(3.96713e-05 1.50377e-05 0)
(2.30134e-05 1.34153e-05 0)
(9.18299e-06 9.18487e-06 0)
(1.69558e-06 2.64262e-06 0)
(2.82054e-06 -9.10775e-06 0)
(1.33951e-05 -2.31768e-05 0)
(3.10527e-05 -3.10732e-05 0)
(5.0815e-05 -3.31299e-05 0)
(6.90805e-05 -3.04454e-05 0)
(8.32894e-05 -2.4112e-05 0)
(9.136e-05 -1.50574e-05 0)
(9.1651e-05 -4.02675e-06 0)
(8.29297e-05 8.39909e-06 0)
(6.43016e-05 2.17727e-05 0)
(3.51455e-05 3.57498e-05 0)
(-4.93919e-06 5.00641e-05 0)
(-5.61753e-05 6.45086e-05 0)
(-0.000118643 7.89209e-05 0)
(-0.000192309 9.31733e-05 0)
(-0.000277043 0.000107165 0)
(-0.000372644 0.000120816 0)
(-0.000478848 0.000134062 0)
(-0.000595341 0.000146854 0)
(-0.000721771 0.000159151 0)
(-0.000857752 0.000170922 0)
(-0.00100288 0.000182142 0)
(-0.00115671 0.000192792 0)
(-0.00131881 0.000202858 0)
(-0.00148872 0.000212331 0)
(-0.00166596 0.000221202 0)
(-0.00185007 0.000229468 0)
(-0.00204056 0.000237126 0)
(-0.00223696 0.000244178 0)
(-0.00243878 0.000250623 0)
(-0.00264554 0.000256467 0)
(-0.00285677 0.000261712 0)
(-0.00307198 0.000266365 0)
(-0.0032907 0.000270432 0)
(-0.00351247 0.00027392 0)
(-0.00373683 0.000276837 0)
(-0.0039633 0.000279191 0)
(-0.00419146 0.000280992 0)
(-0.00442085 0.000282249 0)
(-0.00465104 0.000282971 0)
(-0.00488159 0.00028317 0)
(-0.0051121 0.000282855 0)
(-0.00534214 0.000282037 0)
(-0.00557131 0.000280728 0)
(-0.00579923 0.000278937 0)
(-0.00602549 0.000276677 0)
(-0.00624973 0.00027396 0)
(-0.00647158 0.000270796 0)
(-0.00669068 0.000267197 0)
(-0.00690667 0.000263175 0)
(-0.00711923 0.000258742 0)
(-0.00732801 0.00025391 0)
(-0.0075327 0.000248691 0)
(-0.00773299 0.000243096 0)
(-0.00792858 0.000237139 0)
(-0.00811918 0.000230831 0)
(-0.00830449 0.000224185 0)
(-0.00848427 0.000217212 0)
(-0.00865823 0.000209926 0)
(-0.00882613 0.000202337 0)
(-0.00898774 0.00019446 0)
(-0.00914281 0.000186306 0)
(-0.00929112 0.000177887 0)
(-0.00943248 0.000169218 0)
(-0.00956667 0.000160309 0)
(-0.00969351 0.000151174 0)
(-0.00981282 0.000141825 0)
(-0.00992442 0.000132276 0)
(-0.0100282 0.00012254 0)
(-0.0101239 0.000112629 0)
(-0.0102115 0.000102556 0)
(-0.0102908 9.23353e-05 0)
(-0.0103618 8.19797e-05 0)
(-0.0104242 7.15026e-05 0)
(-0.0104781 6.09177e-05 0)
(-0.0105233 5.02385e-05 0)
(-0.0105597 3.94789e-05 0)
(-0.0105874 2.86527e-05 0)
(-0.0106062 1.77739e-05 0)
(-0.0106162 6.85664e-06 0)
(-0.0106172 -4.08478e-06 0)
(-0.0106093 -1.5036e-05 0)
(-0.0105925 -2.59825e-05 0)
(-0.0105668 -3.69095e-05 0)
(-0.0105322 -4.78025e-05 0)
(-0.0104887 -5.86464e-05 0)
(-0.0104365 -6.94262e-05 0)
(-0.0103755 -8.01269e-05 0)
(-0.0103058 -9.07333e-05 0)
(-0.0102275 -0.00010123 0)
(-0.0101408 -0.000111601 0)
(-0.0100456 -0.000121832 0)
(-0.00994223 -0.000131907 0)
(-0.00983069 -0.00014181 0)
(-0.00971117 -0.000151525 0)
(-0.00958383 -0.000161037 0)
(-0.00944884 -0.00017033 0)
(-0.00930639 -0.000179388 0)
(-0.00915668 -0.000188195 0)
(-0.00899991 -0.000196736 0)
(-0.00883631 -0.000204994 0)
(-0.00866612 -0.000212954 0)
(-0.00848959 -0.0002206 0)
(-0.00830697 -0.000227917 0)
(-0.00811856 -0.00023489 0)
(-0.00792462 -0.000241502 0)
(-0.00772547 -0.000247739 0)
(-0.0075214 -0.000253585 0)
(-0.00731276 -0.000259027 0)
(-0.00709986 -0.000264048 0)
(-0.00688307 -0.000268636 0)
(-0.00666273 -0.000272776 0)
(-0.00643922 -0.000276454 0)
(-0.00621292 -0.000279657 0)
(-0.00598421 -0.000282371 0)
(-0.0057535 -0.000284585 0)
(-0.0055212 -0.000286286 0)
(-0.00528773 -0.000287462 0)
(-0.00505352 -0.000288102 0)
(-0.00481901 -0.000288195 0)
(-0.00458464 -0.000287732 0)
(-0.00435086 -0.000286703 0)
(-0.00411815 -0.000285099 0)
(-0.00388695 -0.000282912 0)
(-0.00365775 -0.000280135 0)
(-0.00343102 -0.000276762 0)
(-0.00320725 -0.000272786 0)
(-0.00298692 -0.000268204 0)
(-0.00277051 -0.000263011 0)
(-0.00255852 -0.000257206 0)
(-0.00235143 -0.000250788 0)
(-0.00214974 -0.000243757 0)
(-0.00195394 -0.000236115 0)
(-0.00176449 -0.000227866 0)
(-0.00158189 -0.000219015 0)
(-0.00140661 -0.000209571 0)
(-0.0012391 -0.000199543 0)
(-0.00107982 -0.000188946 0)
(-0.0009292 -0.000177797 0)
(-0.000787667 -0.000166115 0)
(-0.000655615 -0.000153928 0)
(-0.000533418 -0.000141266 0)
(-0.000421416 -0.000128168 0)
(-0.000319914 -0.000114681 0)
(-0.000229173 -0.000100861 0)
(-0.000149397 -8.67806e-05 0)
(-8.07279e-05 -7.25242e-05 0)
(-2.32259e-05 -5.81989e-05 0)
(2.31442e-05 -4.39374e-05 0)
(5.85361e-05 -2.99063e-05 0)
(8.32484e-05 -1.63159e-05 0)
(9.77575e-05 -3.43376e-06 0)
(0.000102759 8.39709e-06 0)
(9.92169e-05 1.87357e-05 0)
(8.84235e-05 2.70151e-05 0)
(7.20656e-05 3.25156e-05 0)
(5.22483e-05 3.43536e-05 0)
(3.15198e-05 3.15111e-05 0)
(1.34146e-05 2.30161e-05 0)
(2.77672e-06 8.77423e-06 0)
(3.20437e-06 -1.69459e-05 0)
(1.47437e-05 -3.9422e-05 0)
(3.31941e-05 -5.08461e-05 0)
(5.26918e-05 -5.25936e-05 0)
(6.91315e-05 -4.64019e-05 0)
(7.96022e-05 -3.39438e-05 0)
(8.16912e-05 -1.66791e-05 0)
(7.34485e-05 4.17947e-06 0)
(5.33673e-05 2.76515e-05 0)
(2.03201e-05 5.29544e-05 0)
(-2.65019e-05 7.9467e-05 0)
(-8.76422e-05 0.000106696 0)
(-0.000163424 0.000134249 0)
(-0.000253987 0.000161813 0)
(-0.000359323 0.000189138 0)
(-0.000479299 0.000216023 0)
(-0.000613677 0.000242305 0)
(-0.00076214 0.000267856 0)
(-0.000924297 0.000292571 0)
(-0.00109971 0.000316365 0)
(-0.00128787 0.000339173 0)
(-0.00148827 0.00036094 0)
(-0.00170034 0.000381626 0)
(-0.00192349 0.000401199 0)
(-0.00215713 0.000419633 0)
(-0.00240064 0.000436913 0)
(-0.00265338 0.000453027 0)
(-0.00291473 0.000467968 0)
(-0.00318403 0.000481734 0)
(-0.00346066 0.000494325 0)
(-0.00374396 0.000505746 0)
(-0.00403328 0.000516004 0)
(-0.00432799 0.000525107 0)
(-0.00462746 0.000533067 0)
(-0.00493104 0.000539897 0)
(-0.00523812 0.00054561 0)
(-0.00554807 0.000550223 0)
(-0.00586029 0.000553751 0)
(-0.00617418 0.000556213 0)
(-0.00648913 0.000557627 0)
(-0.00680458 0.000558012 0)
(-0.00711995 0.000557388 0)
(-0.00743468 0.000555777 0)
(-0.00774821 0.000553198 0)
(-0.00806001 0.000549673 0)
(-0.00836956 0.000545224 0)
(-0.00867633 0.000539873 0)
(-0.00897983 0.000533643 0)
(-0.00927957 0.000526557 0)
(-0.00957506 0.000518636 0)
(-0.00986585 0.000509906 0)
(-0.0101515 0.000500388 0)
(-0.0104315 0.000490107 0)
(-0.0107055 0.000479085 0)
(-0.0109731 0.000467348 0)
(-0.0112338 0.000454918 0)
(-0.0114874 0.00044182 0)
(-0.0117333 0.000428078 0)
(-0.0119713 0.000413716 0)
(-0.012201 0.000398759 0)
(-0.0124221 0.000383231 0)
(-0.0126342 0.000367157 0)
(-0.0128371 0.000350561 0)
(-0.0130304 0.000333468 0)
(-0.013214 0.000315904 0)
(-0.0133875 0.000297893 0)
(-0.0135507 0.000279462 0)
(-0.0137033 0.000260634 0)
(-0.0138452 0.000241436 0)
(-0.0139761 0.000221895 0)
(-0.0140959 0.000202034 0)
(-0.0142043 0.000181882 0)
(-0.0143013 0.000161464 0)
(-0.0143867 0.000140807 0)
(-0.0144603 0.000119938 0)
(-0.014522 9.88834e-05 0)
(-0.0145718 7.76707e-05 0)
(-0.0146095 5.63275e-05 0)
(-0.0146352 3.48816e-05 0)
(-0.0146487 1.33608e-05 0)
(-0.01465 -8.20672e-06 0)
(-0.0146391 -2.97924e-05 0)
(-0.014616 -5.13676e-05 0)
(-0.0145807 -7.29033e-05 0)
(-0.0145333 -9.43705e-05 0)
(-0.0144737 -0.00011574 0)
(-0.0144021 -0.000136981 0)
(-0.0143186 -0.000158065 0)
(-0.0142232 -0.000178962 0)
(-0.014116 -0.000199641 0)
(-0.0139972 -0.000220072 0)
(-0.013867 -0.000240224 0)
(-0.0137254 -0.000260067 0)
(-0.0135728 -0.00027957 0)
(-0.0134092 -0.000298701 0)
(-0.013235 -0.000317431 0)
(-0.0130503 -0.000335727 0)
(-0.0128554 -0.000353559 0)
(-0.0126505 -0.000370895 0)
(-0.0124361 -0.000387705 0)
(-0.0122123 -0.000403958 0)
(-0.0119795 -0.000419623 0)
(-0.0117381 -0.000434668 0)
(-0.0114883 -0.000449064 0)
(-0.0112306 -0.000462781 0)
(-0.0109654 -0.000475787 0)
(-0.0106931 -0.000488054 0)
(-0.0104141 -0.000499552 0)
(-0.0101288 -0.000510253 0)
(-0.00983766 -0.000520127 0)
(-0.00954125 -0.000529147 0)
(-0.00923999 -0.000537286 0)
(-0.00893441 -0.000544517 0)
(-0.00862501 -0.000550813 0)
(-0.00831232 -0.000556151 0)
(-0.0079969 -0.000560504 0)
(-0.00767931 -0.00056385 0)
(-0.00736011 -0.000566166 0)
(-0.00703989 -0.000567431 0)
(-0.00671924 -0.000567624 0)
(-0.00639877 -0.000566726 0)
(-0.00607909 -0.00056472 0)
(-0.00576084 -0.000561587 0)
(-0.00544463 -0.000557315 0)
(-0.00513111 -0.000551888 0)
(-0.00482093 -0.000545296 0)
(-0.00451473 -0.000537529 0)
(-0.00421318 -0.000528579 0)
(-0.00391692 -0.000518441 0)
(-0.00362662 -0.000507111 0)
(-0.00334294 -0.000494588 0)
(-0.00306652 -0.000480876 0)
(-0.00279802 -0.000465981 0)
(-0.0025381 -0.00044991 0)
(-0.00228737 -0.000432679 0)
(-0.00204648 -0.000414305 0)
(-0.00181603 -0.000394812 0)
(-0.00159662 -0.000374229 0)
(-0.00138882 -0.000352592 0)
(-0.00119318 -0.000329947 0)
(-0.00101022 -0.000306347 0)
(-0.000840407 -0.00028186 0)
(-0.000684186 -0.000256564 0)
(-0.000541936 -0.000230557 0)
(-0.000413978 -0.000203956 0)
(-0.000300555 -0.000176902 0)
(-0.000201822 -0.000149568 0)
(-0.000117828 -0.000122165 0)
(-4.84915e-05 -9.49527e-05 0)
(6.41982e-06 -6.82497e-05 0)
(4.73235e-05 -4.24528e-05 0)
(7.48571e-05 -1.80552e-05 0)
(8.99209e-05 4.32722e-06 0)
(9.3727e-05 2.39259e-05 0)
(8.78548e-05 3.97873e-05 0)
(7.43091e-05 5.07459e-05 0)
(5.55317e-05 5.54185e-05 0)
(3.44269e-05 5.22512e-05 0)
(1.50574e-05 3.969e-05 0)
(3.21393e-06 1.6671e-05 0)
(3.13296e-06 -2.49205e-05 0)
(1.40372e-05 -5.5362e-05 0)
(3.06523e-05 -6.9191e-05 0)
(4.67403e-05 -6.90706e-05 0)
(5.79171e-05 -5.75147e-05 0)
(6.10503e-05 -3.68251e-05 0)
(5.35312e-05 -9.00951e-06 0)
(3.32245e-05 2.42386e-05 0)
(-1.55061e-06 6.15192e-05 0)
(-5.20786e-05 0.000101688 0)
(-0.000119303 0.000143815 0)
(-0.000203876 0.000187146 0)
(-0.000306201 0.00023107 0)
(-0.000426471 0.000275092 0)
(-0.000564703 0.00031881 0)
(-0.000720764 0.000361896 0)
(-0.000894399 0.000404085 0)
(-0.00108524 0.000445159 0)
(-0.00129285 0.000484944 0)
(-0.00151671 0.000523295 0)
(-0.00175623 0.000560098 0)
(-0.00201078 0.00059526 0)
(-0.00227969 0.000628707 0)
(-0.00256227 0.000660382 0)
(-0.00285779 0.00069024 0)
(-0.00316548 0.000718249 0)
(-0.0034846 0.000744385 0)
(-0.00381435 0.000768634 0)
(-0.00415396 0.000790988 0)
(-0.00450263 0.000811445 0)
(-0.00485956 0.00083001 0)
(-0.00522397 0.000846691 0)
(-0.00559506 0.000861499 0)
(-0.00597204 0.000874451 0)
(-0.00635413 0.000885565 0)
(-0.00674056 0.000894863 0)
(-0.00713055 0.000902369 0)
(-0.00752334 0.000908107 0)
(-0.00791819 0.000912106 0)
(-0.00831435 0.000914395 0)
(-0.00871111 0.000915005 0)
(-0.00910774 0.000913965 0)
(-0.00950354 0.000911311 0)
(-0.00989784 0.000907074 0)
(-0.0102899 0.000901289 0)
(-0.0106792 0.000893992 0)
(-0.011065 0.000885219 0)
(-0.0114466 0.000875004 0)
(-0.0118235 0.000863386 0)
(-0.012195 0.000850402 0)
(-0.0125607 0.000836089 0)
(-0.0129198 0.000820485 0)
(-0.0132719 0.000803628 0)
(-0.0136165 0.000785558 0)
(-0.0139529 0.000766312 0)
(-0.0142808 0.00074593 0)
(-0.0145995 0.000724452 0)
(-0.0149087 0.000701916 0)
(-0.015208 0.000678363 0)
(-0.0154968 0.000653832 0)
(-0.0157747 0.000628364 0)
(-0.0160414 0.000602 0)
(-0.0162965 0.000574779 0)
(-0.0165396 0.000546743 0)
(-0.0167703 0.000517932 0)
(-0.0169884 0.000488389 0)
(-0.0171935 0.000458155 0)
(-0.0173854 0.000427271 0)
(-0.0175637 0.00039578 0)
(-0.0177282 0.000363725 0)
(-0.0178788 0.000331147 0)
(-0.018015 0.000298091 0)
(-0.0181369 0.000264599 0)
(-0.0182441 0.000230716 0)
(-0.0183365 0.000196485 0)
(-0.0184141 0.000161951 0)
(-0.0184765 0.000127159 0)
(-0.0185239 9.2154e-05 0)
(-0.018556 5.69815e-05 0)
(-0.0185729 2.16875e-05 0)
(-0.0185744 -1.36814e-05 0)
(-0.0185606 -4.90787e-05 0)
(-0.0185314 -8.44571e-05 0)
(-0.0184869 -0.000119769 0)
(-0.0184271 -0.000154967 0)
(-0.0183521 -0.000190002 0)
(-0.018262 -0.000224826 0)
(-0.0181568 -0.00025939 0)
(-0.0180368 -0.000293644 0)
(-0.0179019 -0.000327539 0)
(-0.0177525 -0.000361026 0)
(-0.0175886 -0.000394053 0)
(-0.0174106 -0.000426572 0)
(-0.0172186 -0.00045853 0)
(-0.0170129 -0.000489878 0)
(-0.0167938 -0.000520565 0)
(-0.0165615 -0.00055054 0)
(-0.0163165 -0.000579752 0)
(-0.016059 -0.00060815 0)
(-0.0157893 -0.000635684 0)
(-0.015508 -0.000662303 0)
(-0.0152154 -0.000687956 0)
(-0.0149119 -0.000712595 0)
(-0.0145979 -0.000736167 0)
(-0.014274 -0.000758626 0)
(-0.0139407 -0.000779921 0)
(-0.0135984 -0.000800003 0)
(-0.0132477 -0.000818827 0)
(-0.0128891 -0.000836344 0)
(-0.0125233 -0.000852508 0)
(-0.0121508 -0.000867274 0)
(-0.0117722 -0.000880597 0)
(-0.0113882 -0.000892435 0)
(-0.0109993 -0.000902746 0)
(-0.0106064 -0.000911488 0)
(-0.01021 -0.000918622 0)
(-0.00981083 -0.000924111 0)
(-0.00940966 -0.000927918 0)
(-0.00900718 -0.000930008 0)
(-0.00860414 -0.00093035 0)
(-0.00820129 -0.000928913 0)
(-0.00779941 -0.000925668 0)
(-0.00739927 -0.00092059 0)
(-0.00700166 -0.000913655 0)
(-0.00660737 -0.000904842 0)
(-0.00621721 -0.000894135 0)
(-0.00583197 -0.000881518 0)
(-0.00545248 -0.00086698 0)
(-0.00507956 -0.000850515 0)
(-0.004714 -0.000832119 0)
(-0.00435663 -0.000811793 0)
(-0.00400825 -0.000789545 0)
(-0.00366967 -0.000765386 0)
(-0.00334167 -0.000739335 0)
(-0.00302505 -0.000711417 0)
(-0.00272057 -0.000681664 0)
(-0.00242896 -0.000650119 0)
(-0.00215096 -0.000616834 0)
(-0.00188725 -0.000581874 0)
(-0.00163851 -0.000545315 0)
(-0.00140533 -0.000507253 0)
(-0.0011883 -0.0004678 0)
(-0.000987925 -0.000427092 0)
(-0.00080465 -0.000385292 0)
(-0.00063884 -0.000342595 0)
(-0.000490768 -0.000299235 0)
(-0.000360594 -0.000255496 0)
(-0.000248348 -0.000211719 0)
(-0.000153911 -0.00016832 0)
(-7.69786e-05 -0.000125801 0)
(-1.70393e-05 -8.47789e-05 0)
(2.66678e-05 -4.60043e-05 0)
(5.51909e-05 -1.03962e-05 0)
(6.99116e-05 2.09246e-05 0)
(7.25956e-05 4.65995e-05 0)
(6.54451e-05 6.50034e-05 0)
(5.11095e-05 7.42349e-05 0)
(3.27278e-05 7.21497e-05 0)
(1.4678e-05 5.6463e-05 0)
(3.2021e-06 2.48706e-05 0)
(2.77104e-06 -3.20908e-05 0)
(1.18507e-05 -6.90341e-05 0)
(2.45224e-05 -8.35909e-05 0)
(3.46299e-05 -7.97024e-05 0)
(3.77268e-05 -6.0712e-05 0)
(3.05672e-05 -2.95775e-05 0)
(1.04443e-05 1.11368e-05 0)
(-2.48716e-05 5.92541e-05 0)
(-7.71574e-05 0.000112949 0)
(-0.000147791 0.000170704 0)
(-0.000237801 0.000231265 0)
(-0.000347911 0.000293598 0)
(-0.000478582 0.00035685 0)
(-0.000630046 0.000420323 0)
(-0.000802337 0.00048344 0)
(-0.000995325 0.000545727 0)
(-0.00120874 0.000606795 0)
(-0.00144218 0.000666322 0)
(-0.00169515 0.000724045 0)
(-0.00196707 0.000779748 0)
(-0.00225728 0.000833255 0)
(-0.00256508 0.000884423 0)
(-0.00288969 0.000933137 0)
(-0.0032303 0.000979305 0)
(-0.00358608 0.00102286 0)
(-0.00395616 0.00106374 0)
(-0.00433965 0.00110191 0)
(-0.00473565 0.00113734 0)
(-0.00514323 0.00117002 0)
(-0.00556147 0.00119994 0)
(-0.00598945 0.0012271 0)
(-0.00642622 0.00125152 0)
(-0.00687086 0.00127319 0)
(-0.00732244 0.00129215 0)
(-0.00778003 0.00130843 0)
(-0.00824272 0.00132204 0)
(-0.0087096 0.00133302 0)
(-0.00917976 0.00134141 0)
(-0.00965233 0.00134724 0)
(-0.0101264 0.00135056 0)
(-0.0106012 0.00135141 0)
(-0.0110758 0.00134984 0)
(-0.0115493 0.00134589 0)
(-0.012021 0.0013396 0)
(-0.0124901 0.00133104 0)
(-0.0129558 0.00132025 0)
(-0.0134172 0.00130728 0)
(-0.0138737 0.00129219 0)
(-0.0143245 0.00127503 0)
(-0.014769 0.00125585 0)
(-0.0152063 0.0012347 0)
(-0.0156359 0.00121166 0)
(-0.016057 0.00118676 0)
(-0.0164691 0.00116007 0)
(-0.0168714 0.00113164 0)
(-0.0172635 0.00110154 0)
(-0.0176448 0.00106982 0)
(-0.0180146 0.00103653 0)
(-0.0183724 0.00100174 0)
(-0.0187178 0.000965504 0)
(-0.0190502 0.000927884 0)
(-0.0193691 0.000888939 0)
(-0.0196741 0.000848728 0)
(-0.0199648 0.000807313 0)
(-0.0202407 0.000764753 0)
(-0.0205015 0.00072111 0)
(-0.0207467 0.000676447 0)
(-0.0209761 0.000630824 0)
(-0.0211893 0.000584304 0)
(-0.021386 0.00053695 0)
(-0.0215659 0.000488826 0)
(-0.0217287 0.000439995 0)
(-0.0218743 0.000390521 0)
(-0.0220025 0.00034047 0)
(-0.0221129 0.000289907 0)
(-0.0222055 0.000238897 0)
(-0.0222801 0.000187507 0)
(-0.0223366 0.000135804 0)
(-0.0223749 8.38555e-05 0)
(-0.0223949 3.17295e-05 0)
(-0.0223966 -2.05054e-05 0)
(-0.0223799 -7.27799e-05 0)
(-0.0223449 -0.000125024 0)
(-0.0222915 -0.000177169 0)
(-0.0222199 -0.000229141 0)
(-0.0221301 -0.000280872 0)
(-0.0220222 -0.000332288 0)
(-0.0218963 -0.000383317 0)
(-0.0217526 -0.000433886 0)
(-0.0215912 -0.000483923 0)
(-0.0214124 -0.000533353 0)
(-0.0212164 -0.000582103 0)
(-0.0210034 -0.000630099 0)
(-0.0207737 -0.000677265 0)
(-0.0205277 -0.000723528 0)
(-0.0202656 -0.000768812 0)
(-0.0199878 -0.000813043 0)
(-0.0196948 -0.000856146 0)
(-0.0193868 -0.000898046 0)
(-0.0190644 -0.000938668 0)
(-0.018728 -0.000977938 0)
(-0.0183781 -0.00101578 0)
(-0.0180152 -0.00105213 0)
(-0.0176398 -0.0010869 0)
(-0.0172526 -0.00112002 0)
(-0.016854 -0.00115143 0)
(-0.0164448 -0.00118105 0)
(-0.0160256 -0.00120881 0)
(-0.0155969 -0.00123465 0)
(-0.0151595 -0.00125849 0)
(-0.0147142 -0.00128027 0)
(-0.0142616 -0.00129993 0)
(-0.0138025 -0.00131739 0)
(-0.0133376 -0.00133261 0)
(-0.0128678 -0.00134552 0)
(-0.0123939 -0.00135607 0)
(-0.0119166 -0.00136419 0)
(-0.0114369 -0.00136984 0)
(-0.0109557 -0.00137296 0)
(-0.0104737 -0.00137352 0)
(-0.00999189 -0.00137146 0)
(-0.00951119 -0.00136675 0)
(-0.00903252 -0.00135935 0)
(-0.00855679 -0.00134923 0)
(-0.00808496 -0.00133636 0)
(-0.00761797 -0.00132071 0)
(-0.00715677 -0.00130226 0)
(-0.00670233 -0.00128101 0)
(-0.00625559 -0.00125694 0)
(-0.00581753 -0.00123005 0)
(-0.00538909 -0.00120035 0)
(-0.00497121 -0.00116785 0)
(-0.00456486 -0.00113257 0)
(-0.00417094 -0.00109454 0)
(-0.00379036 -0.0010538 0)
(-0.00342403 -0.00101041 0)
(-0.00307281 -0.000964431 0)
(-0.00273753 -0.000915946 0)
(-0.00241898 -0.000865056 0)
(-0.00211794 -0.000811881 0)
(-0.0018351 -0.000756563 0)
(-0.00157111 -0.000699276 0)
(-0.00132655 -0.000640224 0)
(-0.00110191 -0.00057965 0)
(-0.000897597 -0.000517846 0)
(-0.000713906 -0.000455156 0)
(-0.000551002 -0.000391993 0)
(-0.0004089 -0.000328852 0)
(-0.000287447 -0.000266324 0)
(-0.000186291 -0.00020512 0)
(-0.000104848 -0.000146096 0)
(-4.22742e-05 -9.02801e-05 0)
(2.5764e-06 -3.89094e-05 0)
(3.11902e-05 6.53249e-06 0)
(4.54412e-05 4.42765e-05 0)
(4.76407e-05 7.2234e-05 0)
(4.05532e-05 8.79714e-05 0)
(2.74516e-05 8.87184e-05 0)
(1.28197e-05 7.13925e-05 0)
(2.89854e-06 3.24387e-05 0)
(2.22668e-06 -3.78157e-05 0)
(8.62411e-06 -7.89268e-05 0)
(1.57239e-05 -9.20017e-05 0)
(1.78006e-05 -8.21204e-05 0)
(1.05341e-05 -5.34319e-05 0)
(-9.33714e-06 -9.54293e-06 0)
(-4.45363e-05 4.64329e-05 0)
(-9.73149e-05 0.000111842 0)
(-0.000169483 0.000184437 0)
(-0.000262459 0.000262328 0)
(-0.000377312 0.00034393 0)
(-0.000514805 0.00042792 0)
(-0.000675427 0.000513194 0)
(-0.000859431 0.000598833 0)
(-0.00106686 0.000684071 0)
(-0.00129758 0.000768273 0)
(-0.0015513 0.00085091 0)
(-0.0018276 0.000931542 0)
(-0.00212593 0.0010098 0)
(-0.00244565 0.0010854 0)
(-0.00278606 0.00115807 0)
(-0.00314635 0.00122762 0)
(-0.00352568 0.00129389 0)
(-0.00392314 0.00135673 0)
(-0.00433781 0.00141605 0)
(-0.0047687 0.00147177 0)
(-0.00521482 0.00152382 0)
(-0.00567514 0.00157215 0)
(-0.00614863 0.00161675 0)
(-0.00663425 0.0016576 0)
(-0.00713093 0.00169469 0)
(-0.00763762 0.00172804 0)
(-0.00815325 0.00175765 0)
(-0.00867678 0.00178355 0)
(-0.00920714 0.00180578 0)
(-0.00974328 0.00182436 0)
(-0.0102842 0.00183934 0)
(-0.0108288 0.00185077 0)
(-0.0113761 0.0018587 0)
(-0.0119251 0.00186318 0)
(-0.0124748 0.00186427 0)
(-0.0130243 0.00186202 0)
(-0.0135725 0.00185651 0)
(-0.0141186 0.00184779 0)
(-0.0146616 0.00183594 0)
(-0.0152005 0.00182102 0)
(-0.0157346 0.00180311 0)
(-0.016263 0.00178226 0)
(-0.0167847 0.00175857 0)
(-0.017299 0.0017321 0)
(-0.0178051 0.00170293 0)
(-0.0183022 0.00167112 0)
(-0.0187895 0.00163677 0)
(-0.0192664 0.00159995 0)
(-0.019732 0.00156073 0)
(-0.0201857 0.0015192 0)
(-0.0206268 0.00147543 0)
(-0.0210546 0.00142951 0)
(-0.0214687 0.00138152 0)
(-0.0218682 0.00133153 0)
(-0.0222528 0.00127963 0)
(-0.0226217 0.0012259 0)
(-0.0229746 0.00117042 0)
(-0.0233109 0.00111328 0)
(-0.02363 0.00105457 0)
(-0.0239317 0.000994359 0)
(-0.0242153 0.000932741 0)
(-0.0244806 0.0008698 0)
(-0.0247272 0.000805622 0)
(-0.0249547 0.000740294 0)
(-0.0251627 0.000673904 0)
(-0.0253511 0.000606539 0)
(-0.0255194 0.00053829 0)
(-0.0256675 0.000469245 0)
(-0.0257951 0.000399495 0)
(-0.0259021 0.000329131 0)
(-0.0259883 0.000258245 0)
(-0.0260535 0.000186929 0)
(-0.0260977 0.000115276 0)
(-0.0261207 4.3381e-05 0)
(-0.0261225 -2.86618e-05 0)
(-0.0261031 -0.000100757 0)
(-0.0260624 -0.000172807 0)
(-0.0260006 -0.000244716 0)
(-0.0259176 -0.000316386 0)
(-0.0258135 -0.000387718 0)