/*--------------------------------*- C++ -*----------------------------------*\
  =========                 |
  \\      /  F ield         | OpenFOAM: The Open Source CFD Toolbox
   \\    /   O peration     | Website:  https://openfoam.org
    \\  /    A nd           | Version:  7
     \\/     M anipulation  |
\*---------------------------------------------------------------------------*/
FoamFile
{
    version     2.0;
    format      ascii;
    class       volScalarField;
    location    "0.4125";
    object      p;
}
// * * * * * * * * * * * * * * * * * * * * * * * * * * * * * * * * * * * * * //

dimensions      [0 2 -2 0 0 0 0];

internalField   nonuniform List<scalar> 
25600
(
2.83586e-06
0.000116701
0.000145891
3.77482e-05
-0.000215617
-0.000610127
-0.00113472
-0.00177481
-0.00251491
-0.00333983
-0.00423513
-0.00518723
-0.00618352
-0.00721234
-0.00826294
-0.00932548
-0.0103909
-0.011451
-0.0124982
-0.0135255
-0.0145267
-0.015496
-0.0164281
-0.0173181
-0.0181618
-0.0189551
-0.0196945
-0.0203767
-0.0209989
-0.0215585
-0.0220532
-0.0224811
-0.0228403
-0.0231293
-0.0233469
-0.023492
-0.0235638
-0.0235616
-0.023485
-0.0233337
-0.0231076
-0.0228066
-0.022431
-0.0219811
-0.0214574
-0.0208603
-0.0201907
-0.0194493
-0.0186372
-0.0177553
-0.0168048
-0.015787
-0.0147033
-0.013555
-0.0123436
-0.0110708
-0.00973833
-0.00834781
-0.00690111
-0.00540013
-0.00384682
-0.00224322
-0.000591413
0.00110646
0.00284819
0.00463152
0.00645416
0.00831373
0.0102078
0.012134
0.0140899
0.0160728
0.0180802
0.0201095
0.0221582
0.0242235
0.0263028
0.0283933
0.0304923
0.0325971
0.0347049
0.0368129
0.0389183
0.0410183
0.0431101
0.0451909
0.0472579
0.0493082
0.051339
0.0533477
0.0553313
0.0572872
0.0592127
0.061105
0.0629614
0.0647794
0.0665564
0.0682897
0.0699768
0.0716154
0.073203
0.0747372
0.0762159
0.0776368
0.0789978
0.080297
0.0815322
0.0827018
0.0838039
0.0848369
0.0857993
0.0866896
0.0875066
0.088249
0.0889159
0.0895064
0.0900197
0.0904553
0.0908126
0.0910915
0.0912919
0.0914138
0.0914576
0.0914237
0.091313
0.0911261
0.0908644
0.0905292
0.090122
0.0896449
0.0890998
0.0884892
0.0878158
0.0870827
0.0862931
0.0854507
0.0845596
0.0836241
0.0826491
0.0816398
0.080602
0.0795417
0.0784656
0.0773811
0.076296
0.0752186
0.0741581
0.0731245
0.0721285
0.0711814
0.0702959
0.0694849
0.0687624
0.0681429
0.0676407
0.067269
0.0670371
0.066947
0.0669873
0.0671027
-0.000106653
5.51431e-06
9.81492e-06
-0.000111161
-0.000353336
-0.000714947
-0.0011894
-0.00176623
-0.00243348
-0.00317878
-0.00398996
-0.00485525
-0.00576343
-0.00670393
-0.00766686
-0.00864304
-0.00962401
-0.0106019
-0.0115696
-0.0125205
-0.0134483
-0.0143476
-0.0152132
-0.0160404
-0.0168248
-0.0175625
-0.0182501
-0.0188843
-0.0194622
-0.0199814
-0.0204394
-0.0208342
-0.0211641
-0.0214275
-0.0216231
-0.0217498
-0.0218067
-0.0217931
-0.0217086
-0.0215527
-0.0213252
-0.0210262
-0.0206556
-0.0202139
-0.0197013
-0.0191184
-0.0184659
-0.0177444
-0.0169548
-0.0160982
-0.0151756
-0.0141882
-0.0131372
-0.0120241
-0.0108503
-0.0096172
-0.00832651
-0.00697988
-0.00557906
-0.00412586
-0.00262216
-0.00106992
0.000528873
0.00217214
0.00385775
0.00558354
0.00734728
0.00914669
0.0109795
0.0128432
0.0147356
0.0166541
0.0185963
0.0205596
0.0225416
0.0245396
0.0265511
0.0285734
0.0306039
0.0326399
0.0346788
0.0367178
0.0387542
0.0407854
0.0428086
0.0448211
0.0468202
0.0488031
0.0507672
0.0527097
0.0546281
0.0565196
0.0583816
0.0602116
0.0620069
0.063765
0.0654835
0.0671598
0.0687916
0.0703764
0.0719121
0.0733963
0.0748269
0.0762018
0.077519
0.0787766
0.0799726
0.0811055
0.0821734
0.0831749
0.0841085
0.0849728
0.0857667
0.0864891
0.087139
0.0877156
0.0882183
0.0886465
0.0889999
0.0892783
0.0894816
0.0896101
0.089664
0.0896439
0.0895506
0.089385
0.0891483
0.0888419
0.0884673
0.0880266
0.0875217
0.0869552
0.0863297
0.0856482
0.084914
0.0841307
0.0833022
0.082433
0.0815275
0.080591
0.079629
0.0786474
0.0776527
0.0766517
0.075652
0.0746615
0.0736887
0.0727429
0.0718338
0.0709718
0.070168
0.0694337
0.0687805
0.0682202
0.0677636
0.0674202
0.0671953
0.0670889
0.0671029
0.0672181
-0.000134951
1.63825e-06
5.97027e-06
-0.000116293
-0.000348574
-0.000687713
-0.00112822
-0.00166139
-0.00227718
-0.00296512
-0.00371457
-0.00451511
-0.00535665
-0.00622958
-0.00712476
-0.00803366
-0.00894831
-0.00986134
-0.0107659
-0.0116556
-0.0125246
-0.0133676
-0.0141793
-0.0149554
-0.0156916
-0.016384
-0.0170292
-0.0176239
-0.0181655
-0.0186513
-0.0190789
-0.0194465
-0.0197521
-0.0199943
-0.0201716
-0.020283
-0.0203275
-0.0203044
-0.0202131
-0.0200533
-0.0198248
-0.0195273
-0.019161
-0.0187261
-0.0182229
-0.0176518
-0.0170135
-0.0163086
-0.015538
-0.0147026
-0.0138034
-0.0128415
-0.0118182
-0.0107347
-0.00959235
-0.00839269
-0.00713722
-0.00582756
-0.00446539
-0.00305244
-0.00159055
-8.15888e-05
0.0014725
0.00306972
0.00470801
0.00638526
0.00809933
0.009848
0.011629
0.0134401
0.0152789
0.0171431
0.0190302
0.0209379
0.0228636
0.0248048
0.0267591
0.0287239
0.0306966
0.0326747
0.0346555
0.0366363
0.0386147
0.0405879
0.0425533
0.0445082
0.0464501
0.0483763
0.0502842
0.0521711
0.0540345
0.0558718
0.0576805
0.0594581
0.061202
0.0629099
0.0645793
0.0662077
0.067793
0.0693328
0.0708248
0.0722671
0.0736574
0.0749938
0.0762743
0.077497
0.0786603
0.0797624
0.0808018
0.0817769
0.0826864
0.0835291
0.0843038
0.0850094
0.0856451
0.0862102
0.0867041
0.0871262
0.0874762
0.0877542
0.08796
0.0880938
0.0881561
0.0881475
0.0880686
0.0879206
0.0877044
0.0874217
0.087074
0.0866632
0.0861914
0.085661
0.0850747
0.0844353
0.0837463
0.0830109
0.0822333
0.0814175
0.0805681
0.0796902
0.0787889
0.07787
0.0769398
0.0760048
0.075072
0.0741491
0.073244
0.0723653
0.071522
0.0707236
0.0699799
0.0693009
0.0686968
0.0681776
0.0677522
0.0674287
0.0672114
0.0671023
0.0671166
0.0672586
-2.71233e-05
0.000122603
0.000128481
6.33997e-06
-0.00021998
-0.000545338
-0.000963972
-0.00146769
-0.00204753
-0.00269411
-0.00339796
-0.00414964
-0.00494001
-0.00576023
-0.00660189
-0.00745706
-0.00831826
-0.00917853
-0.0100314
-0.0108707
-0.011691
-0.0124869
-0.0132537
-0.0139868
-0.0146823
-0.0153363
-0.0159454
-0.0165066
-0.0170171
-0.0174743
-0.0178759
-0.01822
-0.0185047
-0.0187285
-0.0188901
-0.0189882
-0.0190219
-0.0189906
-0.0188935
-0.0187304
-0.0185008
-0.0182048
-0.0178422
-0.0174132
-0.0169182
-0.0163576
-0.0157318
-0.0150416
-0.0142876
-0.0134709
-0.0125923
-0.0116529
-0.0106539
-0.00959643
-0.00848192
-0.00731174
-0.00608736
-0.00481033
-0.00348228
-0.00210489
-0.000679932
0.000790781
0.00230537
0.00386188
0.00545833
0.00709268
0.00876282
0.0104666
0.0122019
0.0139664
0.0157578
0.017574
0.0194124
0.0212708
0.0231468
0.0250379
0.0269416
0.0288556
0.0307772
0.032704
0.0346334
0.036563
0.03849
0.040412
0.0423263
0.0442305
0.046122
0.0479981
0.0498564
0.0516943
0.0535092
0.0552988
0.0570605
0.058792
0.0604907
0.0621543
0.0637804
0.0653668
0.0669112
0.0684114
0.0698652
0.0712705
0.0726255
0.073928
0.0751763
0.0763686
0.0775032
0.0785784
0.0795927
0.0805448
0.0814332
0.0822569
0.0830148
0.0837058
0.0843291
0.0848841
0.0853702
0.085787
0.0861341
0.0864116
0.0866195
0.0867579
0.0868275
0.0868286
0.0867621
0.0866291
0.0864307
0.0861682
0.0858435
0.0854582
0.0850146
0.0845149
0.0839619
0.0833583
0.0827073
0.0820125
0.0812775
0.0805065
0.0797039
0.0788745
0.0780234
0.0771561
0.0762786
0.0753971
0.0745183
0.0736493
0.0727976
0.0719713
0.0711786
0.0704282
0.069729
0.0690901
0.0685206
0.0680292
0.0676244
0.0673136
0.0671016
0.0669925
0.0670099
0.0671689
0.00022543
0.000364667
0.000360991
0.000233052
6.72927e-06
-0.000311636
-0.000716007
-0.00119854
-0.00175098
-0.00236488
-0.00303167
-0.00374283
-0.00449
-0.00526511
-0.00606041
-0.00686854
-0.00768255
-0.0084959
-0.00930244
-0.0100964
-0.0108725
-0.0116257
-0.0123513
-0.0130451
-0.013703
-0.0143215
-0.0148973
-0.0154274
-0.0159089
-0.0163395
-0.0167169
-0.017039
-0.0173041
-0.0175107
-0.0176574
-0.017743
-0.0177667
-0.0177276
-0.0176251
-0.0174589
-0.0172285
-0.0169338
-0.0165748
-0.0161516
-0.0156645
-0.0151138
-0.0145001
-0.0138239
-0.013086
-0.0122871
-0.0114283
-0.0105105
-0.00953485
-0.00850249
-0.00741472
-0.00627287
-0.00507837
-0.00383272
-0.00253748
-0.0011943
0.00019513
0.00162904
0.00310561
0.00462296
0.00617914
0.00777219
0.00940005
0.0110606
0.0127519
0.0144715
0.0162174
0.0179873
0.0197789
0.0215899
0.023418
0.0252608
0.0271159
0.0289809
0.0308534
0.0327309
0.034611
0.0364911
0.0383688
0.0402415
0.0421069
0.0439623
0.0458052
0.0476333
0.0494439
0.0512347
0.0530032
0.054747
0.0564636
0.0581508
0.0598061
0.0614273
0.063012
0.0645581
0.0660633
0.0675256
0.0689427
0.0703128
0.0716339
0.0729042
0.0741217
0.0752848
0.0763919
0.0774414
0.0784318
0.0793618
0.0802302
0.0810358
0.0817776
0.0824546
0.0830661
0.0836115
0.0840901
0.0845017
0.0848461
0.085123
0.0853328
0.0854755
0.0855517
0.0855619
0.0855071
0.085388
0.0852061
0.0849626
0.0846592
0.0842977
0.0838802
0.083409
0.0828867
0.0823162
0.0817004
0.0810427
0.0803469
0.0796168
0.0788568
0.0780715
0.0772658
0.0764449
0.0756144
0.0747804
0.0739492
0.0731274
0.0723221
0.0715405
0.0707905
0.0700801
0.0694172
0.0688101
0.068267
0.067796
0.0674047
0.0671006
0.0668888
0.0667749
0.066785
0.0669382
0.000618925
0.000726405
0.000700733
0.000559045
0.000325472
6.80925e-06
-0.000390836
-0.000860036
-0.00139314
-0.00198246
-0.00262024
-0.00329872
-0.00401031
-0.0047476
-0.00550348
-0.00627116
-0.00704416
-0.00781637
-0.00858203
-0.0093357
-0.0100723
-0.010787
-0.0114755
-0.0121336
-0.0127574
-0.0133435
-0.0138888
-0.0143902
-0.0148452
-0.0152512
-0.0156061
-0.0159079
-0.0161549
-0.0163455
-0.0164785
-0.0165525
-0.0165668
-0.0165206
-0.0164131
-0.016244
-0.0160129
-0.0157196
-0.0153642
-0.0149465
-0.014467
-0.0139259
-0.0133236
-0.0126609
-0.0119382
-0.0111565
-0.0103166
-0.00941942
-0.00846607
-0.00745767
-0.00639544
-0.00528067
-0.00411473
-0.00289907
-0.00163521
-0.000324733
0.00103072
0.00242943
0.00386964
0.00534951
0.00686718
0.00842071
0.0100081
0.0116274
0.0132765
0.0149532
0.0166555
0.0183811
0.0201279
0.0218936
0.0236759
0.0254725
0.0272811
0.0290993
0.0309249
0.0327552
0.0345881
0.036421
0.0382515
0.0400772
0.0418957
0.0437045
0.0455012
0.0472834
0.0490486
0.0507944
0.0525186
0.0542186
0.0558923
0.0575373
0.0591513
0.060732
0.0622773
0.063785
0.0652529
0.0666791
0.0680614
0.069398
0.0706869
0.0719264
0.0731146
0.0742501
0.075331
0.0763561
0.0773239
0.078233
0.0790823
0.0798707
0.0805972
0.0812609
0.0818612
0.0823973
0.0828689
0.0832755
0.0836171
0.0838934
0.0841048
0.0842514
0.0843337
0.0843523
0.0843081
0.084202
0.0840352
0.0838092
0.0835254
0.0831858
0.0827923
0.0823473
0.0818532
0.0813128
0.080729
0.0801052
0.0794448
0.0787517
0.0780301
0.0772842
0.0765189
0.0757391
0.0749502
0.0741579
0.0733679
0.0725867
0.0718207
0.0710768
0.070362
0.0696837
0.0690493
0.0684663
0.0679421
0.0674841
0.0670994
0.0667952
0.066577
0.0664509
0.066442
0.0665682
0.00114287
0.00120168
0.00114269
0.000979029
0.000730622
0.000404223
5.83663e-06
-0.000457633
-0.000979154
-0.00155169
-0.00216818
-0.00282159
-0.00350498
-0.00421161
-0.00493494
-0.0056687
-0.0064069
-0.00714384
-0.00787412
-0.00859263
-0.00929455
-0.00997536
-0.0106308
-0.011257
-0.0118503
-0.0124074
-0.0129251
-0.0134007
-0.0138315
-0.0142152
-0.0145496
-0.0148329
-0.0150633
-0.0152394
-0.0153597
-0.0154232
-0.0154289
-0.0153762
-0.0152642
-0.0150926
-0.014861
-0.0145692
-0.0142171
-0.0138048
-0.0133325
-0.0128005
-0.0122092
-0.0115592
-0.010851
-0.0100856
-0.00926355
-0.00838595
-0.00745376
-0.00646807
-0.00543005
-0.00434096
-0.00320211
-0.0020149
-0.000780802
0.000498653
0.00182187
0.00318718
0.00459288
0.0060372
0.00751831
0.00903434
0.0105834
0.0121634
0.0137725
0.0154085
0.0170694
0.0187531
0.0204573
0.02218
0.0239188
0.0256717
0.0274361
0.02921
0.030991
0.0327767
0.0345648
0.0363529
0.0381388
0.0399199
0.041694
0.0434587
0.0452116
0.0469503
0.0486724
0.0503758
0.052058
0.0537167
0.0553498
0.0569549
0.0585298
0.0600723
0.0615804
0.0630518
0.0644846
0.0658766
0.0672261
0.068531
0.0697896
0.0710001
0.0721608
0.0732701
0.0743265
0.0753286
0.076275
0.0771644
0.0779957
0.0787679
0.07948
0.0801312
0.0807209
0.0812483
0.0817131
0.082115
0.0824538
0.0827294
0.0829421
0.0830921
0.0831799
0.0832062
0.0831716
0.0830772
0.0829242
0.082714
0.0824481
0.0821283
0.0817566
0.0813352
0.0808665
0.0803532
0.0797982
0.0792046
0.0785758
0.0779156
0.0772279
0.0765168
0.0757868
0.0750428
0.0742898
0.073533
0.0727781
0.0720309
0.0712973
0.0705839
0.0698971
0.0692436
0.0686302
0.0680638
0.0675511
0.0670989
0.0667138
0.0664026
0.0661707
0.0660247
0.0659856
0.0660679
0.00178353
0.00178067
0.00167864
0.00148531
0.00121483
0.000873638
0.000467528
2.79204e-06
-0.000514184
-0.00107699
-0.00167921
-0.00231445
-0.00297641
-0.00365892
-0.00435601
-0.00506191
-0.00577107
-0.00647821
-0.00717829
-0.00786649
-0.0085383
-0.00918942
-0.00981587
-0.0104139
-0.0109801
-0.0115111
-0.0120042
-0.0124565
-0.0128656
-0.0132292
-0.0135451
-0.0138116
-0.014027
-0.0141898
-0.0142987
-0.0143526
-0.0143506
-0.014292
-0.014176
-0.0140023
-0.0137704
-0.0134801
-0.0131314
-0.0127242
-0.0122588
-0.0117355
-0.0111546
-0.0105167
-0.00982235
-0.00907226
-0.00826725
-0.00740819
-0.00649605
-0.00553189
-0.00451682
-0.00345206
-0.00233888
-0.00117864
2.72425e-05
0.00127728
0.00256993
0.00390359
0.00527658
0.00668718
0.00813364
0.00961411
0.0111267
0.0126696
0.0142408
0.0158382
0.0174599
0.0191037
0.0207676
0.0224495
0.0241472
0.0258585
0.0275812
0.029313
0.0310518
0.0327952
0.0345409
0.0362867
0.0380302
0.0397692
0.0415013
0.0432242
0.0449356
0.0466332
0.0483148
0.0499779
0.0516205
0.0532402
0.0548349
0.0564023
0.0579403
0.0594469
0.0609198
0.062357
0.0637566
0.0651165
0.066435
0.0677101
0.0689401
0.0701233
0.0712581
0.0723428
0.0733761
0.0743565
0.0752828
0.0761537
0.0769681
0.077725
0.0784236
0.079063
0.0796425
0.0801617
0.0806201
0.0810174
0.0813534
0.0816283
0.081842
0.081995
0.0820877
0.0821207
0.0820948
0.082011
0.0818705
0.0816745
0.0814247
0.0811227
0.0807706
0.0803703
0.0799244
0.0794353
0.0789059
0.0783391
0.0777384
0.0771071
0.076449
0.0757682
0.0750689
0.0743556
0.0736331
0.0729064
0.0721806
0.0714613
0.0707539
0.0700645
0.069399
0.0687635
0.0681642
0.0676075
0.0670995
0.0666464
0.0662543
0.0659294
0.065677
0.0655035
0.0654246
0.06545
0.00252635
0.00245219
0.00229921
0.00206943
0.00177034
0.00140793
0.000987731
0.000515369
-3.42807e-06
-0.000562874
-0.00115716
-0.00178049
-0.00242715
-0.00309153
-0.00376818
-0.00445179
-0.00513726
-0.00581968
-0.00649436
-0.00715681
-0.00780277
-0.00842822
-0.00902939
-0.00960274
-0.010145
-0.0106531
-0.0111243
-0.0115559
-0.0119456
-0.0122911
-0.0125904
-0.0128418
-0.0130437
-0.0131945
-0.0132931
-0.0133385
-0.0133296
-0.0132657
-0.0131463
-0.0129707
-0.0127387
-0.0124501
-0.0121047
-0.0117025
-0.0112438
-0.0107288
-0.0101578
-0.0095314
-0.00885012
-0.00811465
-0.00732575
-0.00648426
-0.00559112
-0.00464734
-0.00365402
-0.0026123
-0.00152345
-0.000388749
0.000790408
0.00201259
0.00327628
0.00457994
0.00592194
0.00730061
0.00871424
0.010161
0.0116392
0.0131468
0.0146821
0.0162429
0.0178274
0.0194336
0.0210593
0.0227026
0.0243613
0.0260333
0.0277164
0.0294085
0.0311073
0.0328106
0.0345163
0.036222
0.0379256
0.0396247
0.0413171
0.0430005
0.0446728
0.0463316
0.0479747
0.0495999
0.0512051
0.0527879
0.0543464
0.0558783
0.0573816
0.0588542
0.0602939
0.061699
0.0630673
0.064397
0.0656863
0.0669334
0.0681365
0.069294
0.0704044
0.071466
0.0724776
0.0734377
0.074345
0.0751985
0.075997
0.0767395
0.0774253
0.0780536
0.0786236
0.0791349
0.0795872
0.07998
0.0803134
0.0805872
0.0808017
0.0809572
0.0810542
0.0810932
0.0810751
0.0810007
0.0808713
0.0806881
0.0804527
0.0801666
0.0798319
0.0794505
0.0790248
0.0785572
0.0780503
0.0775072
0.0769309
0.0763248
0.0756925
0.0750377
0.0743646
0.0736773
0.0729804
0.0722785
0.0715765
0.0708794
0.0701925
0.0695211
0.0688707
0.0682471
0.0676558
0.0671025
0.066593
0.0661329
0.0657276
0.0653828
0.0651037
0.0648959
0.0647693
0.0647279
0.00335713
0.00320478
0.00299461
0.00272266
0.0023893
0.002
0.00156001
0.00107429
0.000547929
-1.39089e-05
-0.000605995
-0.00122311
-0.00186008
-0.00251181
-0.00317335
-0.00383983
-0.00450656
-0.005169
-0.00582279
-0.00646375
-0.00708789
-0.00769146
-0.0082709
-0.0088229
-0.00934436
-0.00983239
-0.0102843
-0.0106977
-0.0110701
-0.0113996
-0.0116842
-0.0119221
-0.0121119
-0.0122521
-0.0123416
-0.0123793
-0.0123643
-0.0122959
-0.0121734
-0.0119964
-0.0117646
-0.0114777
-0.0111356
-0.0107383
-0.010286
-0.00977888
-0.00921738
-0.00860192
-0.00793306
-0.00721144
-0.0064378
-0.00561295
-0.0047378
-0.00381331
-0.00284055
-0.00182064
-0.000754792
0.000355738
0.00150961
0.00270543
0.00394174
0.00521703
0.00652972
0.00787819
0.00926076
0.0106757
0.0121213
0.0135956
0.0150968
0.0166231
0.0181725
0.019743
0.0213327
0.0229395
0.0245613
0.0261962
0.0278419
0.0294964
0.0311575
0.032823
0.0344908
0.0361587
0.0378245
0.0394859
0.0411409
0.0427871
0.0444224
0.0460446
0.0476516
0.0492411
0.050811
0.0523592
0.0538836
0.0553821
0.0568526
0.0582932
0.0597018
0.0610766
0.0624155
0.0637169
0.0649788
0.0661995
0.0673774
0.0685108
0.0695982
0.0706382
0.0716294
0.0725703
0.07346
0.0742971
0.0750806
0.0758097
0.0764835
0.0771012
0.0776622
0.0781661
0.0786125
0.079001
0.0793316
0.0796044
0.0798194
0.079977
0.0800776
0.0801219
0.0801105
0.0800446
0.079925
0.0797531
0.0795304
0.0792585
0.0789392
0.0785744
0.0781664
0.0777176
0.0772305
0.0767079
0.0761527
0.0755683
0.074958
0.0743253
0.0736741
0.0730084
0.0723324
0.0716505
0.0709672
0.0702872
0.0696153
0.0689565
0.0683158
0.0676983
0.0671093
0.0665539
0.0660373
0.0655645
0.0651405
0.0647703
0.0644587
0.0642111
0.0640305
0.0639152
0.00426243
0.00402714
0.00375508
0.0034363
0.00306385
0.00264274
0.00217796
0.00167381
0.00113473
0.000565325
-2.97451e-05
-0.000645801
-0.00127819
-0.0019223
-0.00257362
-0.00322773
-0.0038803
-0.00452715
-0.00516425
-0.0057877
-0.00639381
-0.00697907
-0.00754016
-0.00807396
-0.00857757
-0.00904826
-0.00948349
-0.0098809
-0.0102383
-0.0105537
-0.0108253
-0.0110514
-0.0112305
-0.0113613
-0.0114427
-0.0114737
-0.0114534
-0.011381
-0.0112561
-0.0110781
-0.0108467
-0.0105616
-0.0102228
-0.00983022
-0.00938408
-0.0088846
-0.00833211
-0.00772706
-0.00706998
-0.00636149
-0.0056023
-0.00479318
-0.00393503
-0.00302877
-0.00207544
-0.00107613
-3.20114e-05
0.0010557
0.00218569
0.00335662
0.00456707
0.00581557
0.00710059
0.00842054
0.0097738
0.0111587
0.0125734
0.0140163
0.0154855
0.0169792
0.0184954
0.0200323
0.0215879
0.0231602
0.0247473
0.0263471
0.0279576
0.0295766
0.0312022
0.0328321
0.0344642
0.0360964
0.0377267
0.0393527
0.0409724
0.0425836
0.0441841
0.0457719
0.0473448
0.0489007
0.0504375
0.0519531
0.0534455
0.0549126
0.0563524
0.057763
0.0591424
0.0604888
0.0618002
0.0630749
0.0643111
0.0655071
0.0666614
0.0677722
0.0688382
0.0698579
0.07083
0.0717531
0.0726261
0.0734478
0.0742174
0.0749338
0.0755963
0.0762041
0.0767567
0.0772535
0.0776943
0.0780786
0.0784066
0.078678
0.0788933
0.0790525
0.0791562
0.079205
0.0791996
0.0791409
0.07903
0.078868
0.0786565
0.0783969
0.078091
0.0777407
0.0773481
0.0769156
0.0764454
0.0759404
0.0754033
0.0748372
0.0742453
0.0736309
0.0729977
0.0723495
0.0716901
0.0710237
0.0703544
0.0696867
0.0690249
0.0683737
0.0677375
0.0671211
0.0665292
0.0659666
0.0654378
0.0649473
0.0644997
0.0640991
0.0637504
0.0634582
0.0632188
0.0630248
0.00522985
0.0049085
0.00457111
0.00420178
0.00378626
0.00332915
0.00283525
0.0023082
0.00175185
0.00117025
0.000567532
-5.21348e-05
-0.000684576
-0.00132565
-0.00197124
-0.00261734
-0.00325997
-0.0038953
-0.00451959
-0.00512926
-0.00572088
-0.00629119
-0.0068371
-0.00735569
-0.00784425
-0.00830019
-0.00872113
-0.00910484
-0.00944924
-0.00975244
-0.0100127
-0.0102285
-0.0103983
-0.010521
-0.0105954
-0.0106205
-0.0105957
-0.0105201
-0.0103932
-0.0102145
-0.00998365
-0.00970054
-0.00936501
-0.00897709
-0.00853692
-0.00804472
-0.00750083
-0.00690568
-0.00625977
-0.0055637
-0.00481816
-0.00402391
-0.0031818
-0.00229275
-0.00135775
-0.000377867
0.000645767
0.00171196
0.00281945
0.00396692
0.005153
0.00637625
0.00763519
0.00892827
0.0102539
0.0116104
0.0129962
0.0144095
0.0158484
0.0173113
0.0187963
0.0203016
0.0218251
0.023365
0.0249194
0.0264863
0.0280635
0.0296492
0.0312413
0.0328377
0.0344363
0.036035
0.0376318
0.0392245
0.0408111
0.0423894
0.0439573
0.0455128
0.0470538
0.0485781
0.0500839
0.0515689
0.0530313
0.054469
0.0558801
0.0572626
0.0586147
0.0599344
0.0612201
0.0624699
0.0636821
0.0648551
0.0659872
0.067077
0.068123
0.0691237
0.0700779
0.0709843
0.0718418
0.0726493
0.0734057
0.0741103
0.0747622
0.0753607
0.0759053
0.0763955
0.0768308
0.0772112
0.0775364
0.0778065
0.0780216
0.0781821
0.0782884
0.078341
0.0783407
0.0782882
0.0781847
0.0780314
0.0778295
0.0775805
0.0772862
0.0769484
0.076569
0.0761503
0.0756945
0.0752043
0.0746823
0.0741313
0.0735545
0.0729549
0.0723361
0.0717014
0.0710546
0.0703995
0.0697399
0.06908
0.0684238
0.0677755
0.0671393
0.0665194
0.06592
0.0653455
0.0648
0.0642875
0.0638118
0.0633767
0.0629868
0.0626463
0.0623446
0.0620683
0.00624806
0.00583874
0.0054336
0.00501086
0.00454903
0.00405243
0.00352569
0.00297186
0.00239422
0.0017963
0.00118176
0.000554273
-8.24238e-05
-0.000724606
-0.00136857
-0.00201063
-0.0026472
-0.00327475
-0.00388985
-0.0044892
-0.00506964
-0.00562815
-0.00616186
-0.00666806
-0.0071442
-0.00758787
-0.00799681
-0.00836893
-0.00870228
-0.00899506
-0.00924564
-0.00945253
-0.00961441
-0.00973009
-0.00979852
-0.0098188
-0.00979013
-0.00971185
-0.00958342
-0.00940439
-0.00917446
-0.00889343
-0.0085612
-0.00817782
-0.0077434
-0.00725819
-0.00672249
-0.00613673
-0.00550139
-0.00481707
-0.00408442
-0.0033042
-0.00247721
-0.00160436
-0.000686617
0.000274982
0.00127934
0.00232528
0.0034116
0.00453701
0.00570017
0.00689968
0.0081341
0.00940192
0.0107016
0.0120315
0.01339
0.0147754
0.016186
0.01762
0.0190756
0.0205511
0.0220445
0.023554
0.0250777
0.0266135
0.0281597
0.0297141
0.0312748
0.0328397
0.0344069
0.0359742
0.0375396
0.0391011
0.0406567
0.0422042
0.0437415
0.0452668
0.0467779
0.0482727
0.0497494
0.0512059
0.0526403
0.0540505
0.0554347
0.056791
0.0581176
0.0594126
0.0606742
0.0619008
0.0630906
0.0642421
0.0653537
0.0664239
0.0674512
0.0684343
0.0693719
0.0702627
0.0711058
0.0718999
0.0726441
0.0733377
0.0739797
0.0745695
0.0751066
0.0755904
0.0760207
0.0763971
0.0767196
0.0769882
0.077203
0.0773644
0.0774727
0.0775284
0.0775323
0.0774852
0.077388
0.077242
0.0770482
0.0768084
0.0765239
0.0761965
0.0758282
0.0754211
0.0749772
0.0744992
0.0739894
0.0734507
0.0728858
0.0722978
0.0716898
0.0710651
0.0704271
0.0697794
0.0691256
0.0684695
0.0678147
0.0671651
0.0665246
0.0658969
0.065286
0.0646955
0.0641292
0.0635908
0.0630834
0.0626103
0.0621758
0.0617841
0.0614175
0.0610569
0.00730678
0.00680848
0.00633398
0.00585569
0.00534498
0.00480598
0.00424324
0.00365928
0.00305683
0.00243896
0.00180886
0.00116978
0.00052505
-0.000122003
-0.000768031
-0.00140971
-0.00204376
-0.00266697
-0.00327622
-0.00386846
-0.0044408
-0.00499045
-0.00551476
-0.00601121
-0.00647741
-0.00691112
-0.00731024
-0.00767278
-0.00799693
-0.00828099
-0.00852344
-0.00872288
-0.00887806
-0.00898787
-0.00905132
-0.00906754
-0.00903579
-0.00895543
-0.00882595
-0.00864694
-0.00841811
-0.00813927
-0.00781036
-0.00743141
-0.00700256
-0.00652402
-0.00599613
-0.00541927
-0.00479394
-0.0041207
-0.0034002
-0.00263317
-0.00182041
-0.000962795
-6.12675e-05
0.00088316
0.00186942
0.00289636
0.00396282
0.00506752
0.00620918
0.00738642
0.00859784
0.00984196
0.0111173
0.0124222
0.0137551
0.0151144
0.0164984
0.0179053
0.0193335
0.020781
0.0222462
0.0237272
0.0252221
0.026729
0.028246
0.0297711
0.0313024
0.0328379
0.0343757
0.0359136
0.0374498
0.0389821
0.0405086
0.0420274
0.0435362
0.0450332
0.0465164
0.0479838
0.0494334
0.0508633
0.0522715
0.0536562
0.0550154
0.0563474
0.0576502
0.0589221
0.0601615
0.0613665
0.0625355
0.0636671
0.0647596
0.0658115
0.0668216
0.0677883
0.0687105
0.0695869
0.0704166
0.0711983
0.0719312
0.0726145
0.0732473
0.073829
0.074359
0.0748369
0.0752623
0.075635
0.0759548
0.0762218
0.0764361
0.0765979
0.0767077
0.076766
0.0767733
0.0767306
0.0766387
0.0764987
0.0763118
0.0760794
0.0758031
0.0754844
0.0751252
0.0747274
0.0742932
0.0738249
0.0733248
0.0727954
0.0722395
0.0716599
0.0710596
0.0704416
0.069809
0.0691652
0.0685135
0.0678573
0.0672002
0.0665455
0.0658968
0.0652576
0.0646313
0.0640213
0.0634308
0.062863
0.0623207
0.0618066
0.0613249
0.0608798
0.0604464
0.0600003
0.00839668
0.00780908
0.00726421
0.0067288
0.00616721
0.00558344
0.00498206
0.00436509
0.00373477
0.00309374
0.00244479
0.00179076
0.00113461
0.000479303
-0.000172148
-0.000816747
-0.00145153
-0.00207357
-0.00268003
-0.00326814
-0.00383524
-0.00437877
-0.00489628
-0.00538544
-0.00584404
-0.00626998
-0.00666131
-0.00701617
-0.00733286
-0.00760982
-0.00784561
-0.00803894
-0.00818864
-0.00829365
-0.00835305
-0.00836603
-0.00833187
-0.00825
-0.00811991
-0.00794125
-0.00771373
-0.00743721
-0.00711162
-0.00673701
-0.00631352
-0.00584137
-0.00532089
-0.00475247
-0.00413658
-0.00347378
-0.00276471
-0.00201008
-0.00121067
-0.000367332
0.000519
0.00144734
0.00241665
0.00342582
0.00447368
0.00555902
0.00668056
0.00783697
0.00902687
0.0102488
0.0115013
0.0127829
0.0140919
0.0154268
0.0167859
0.0181675
0.01957
0.0209915
0.0224304
0.0238847
0.0253527
0.0268326
0.0283223
0.0298201
0.031324
0.0328321
0.0343424
0.035853
0.0373619
0.0388671
0.0403666
0.0418585
0.0433409
0.0448116
0.0462689
0.0477108
0.0491352
0.0505404
0.0519244
0.0532853
0.0546214
0.0559307
0.0572116
0.0584622
0.0596808
0.0608659
0.0620158
0.0631289
0.0642038
0.0652389
0.0662329
0.0671845
0.0680925
0.0689557
0.0697729
0.0705432
0.0712657
0.0719394
0.0725637
0.0731378
0.0736613
0.0741336
0.0745544
0.0749234
0.0752406
0.0755059
0.0757194
0.0758814
0.0759923
0.0760524
0.0760626
0.0760234
0.0759357
0.0758006
0.0756193
0.075393
0.0751232
0.0748114
0.0744594
0.0740691
0.0736423
0.0731813
0.0726884
0.0721658
0.0716162
0.0710422
0.0704465
0.069832
0.0692017
0.0685585
0.0679055
0.067246
0.066583
0.0659198
0.0652595
0.0646053
0.0639603
0.0633275
0.0627096
0.0621096
0.0615297
0.0609722
0.0604413
0.059941
0.0594398
0.0589077
0.00950927
0.00883258
0.00821682
0.00762318
0.00700917
0.00637874
0.00573651
0.00508408
0.00442325
0.00375629
0.00308557
0.00241362
0.00174302
0.00107643
0.000416534
-0.000233984
-0.000872448
-0.00149622
-0.00210273
-0.00268945
-0.00325396
-0.00379391
-0.00430705
-0.00479122
-0.00524438
-0.0056646
-0.00605004
-0.006399
-0.0067099
-0.00698128
-0.00721182
-0.00740031
-0.00754566
-0.00764689
-0.00770313
-0.00771363
-0.00767772
-0.00759486
-0.0074646
-0.00728659
-0.0070606
-0.00678648
-0.00646421
-0.00609384
-0.00567551
-0.00520947
-0.00469603
-0.00413557
-0.00352858
-0.00287559
-0.00217724
-0.00143422
-0.0006473
0.000182678
0.00105481
0.00196813
0.00292162
0.00391419
0.00494471
0.00601198
0.00711476
0.00825174
0.00942158
0.0106229
0.0118542
0.0131139
0.0144007
0.0157128
0.0170488
0.0184068
0.0197853
0.0211826
0.0225969
0.0240265
0.0254695
0.0269242
0.0283886
0.029861
0.0313395
0.0328221
0.0343069
0.0357921
0.0372756
0.0387556
0.0402301
0.0416972
0.043155
0.0446014
0.0460347
0.0474529
0.0488541
0.0502365
0.0515981
0.0529371
0.0542518
0.0555403
0.0568008
0.0580318
0.0592314
0.0603981
0.0615303
0.0626265
0.0636851
0.0647048
0.0656841
0.0666219
0.0675168
0.0683677
0.0691736
0.0699334
0.0706462
0.0713112
0.0719276
0.0724948
0.0730121
0.0734792
0.0738957
0.0742613
0.0745758
0.0748393
0.0750519
0.0752138
0.0753253
0.0753868
0.075399
0.0753625
0.0752782
0.075147
0.0749699
0.0747484
0.0744836
0.0741772
0.0738306
0.0734458
0.0730244
0.0725686
0.0720805
0.0715624
0.0710165
0.0704454
0.0698516
0.0692378
0.0686067
0.0679611
0.0673038
0.0666377
0.0659658
0.0652909
0.064616
0.0639438
0.0632771
0.0626186
0.0619707
0.061336
0.0607162
0.0601133
0.0595316
0.0589749
0.0584052
0.0577872
0.0106368
0.00987162
0.00918485
0.00853225
0.00786466
0.00718608
0.0065012
0.00581125
0.00511766
0.00442232
0.00372732
0.00303482
0.0023471
0.00166651
0.000995437
0.000336283
-0.00030856
-0.00093672
-0.00154587
-0.00213373
-0.00269808
-0.0032368
-0.0037478
-0.00422913
-0.00467888
-0.00509528
-0.00547663
-0.00582136
-0.00612802
-0.00639526
-0.00662186
-0.00680671
-0.00694879
-0.00704719
-0.00710112
-0.00710986
-0.00707281
-0.00698946
-0.00685941
-0.00668234
-0.00645806
-0.00618644
-0.00586748
-0.00550124
-0.00508789
-0.00462766
-0.00412088
-0.00356793
-0.00296929
-0.0023255
-0.00163717
-0.000904993
-0.000129725
0.000687807
0.00154672
0.00244606
0.00338483
0.00436197
0.00537636
0.00642684
0.00751219
0.00863113
0.00978234
0.0109644
0.012176
0.0134156
0.0146816
0.0159727
0.0172871
0.0186233
0.0199796
0.0213544
0.022746
0.0241526
0.0255724
0.0270038
0.0284448
0.0298937
0.0313485
0.0328076
0.0342689
0.0357305
0.0371907
0.0386474
0.0400988
0.041543
0.042978
0.0444021
0.0458133
0.0472097
0.0485895
0.0499508
0.0512918
0.0526108
0.0539058
0.0551751
0.0564171
0.05763
0.0588122
0.0599621
0.0610782
0.0621588
0.0632026
0.0642082
0.0651741
0.0660992
0.0669822
0.067822
0.0686175
0.0693677
0.0700717
0.0707287
0.0713379
0.0718987
0.0724104
0.0728727
0.0732851
0.0736474
0.0739594
0.0742211
0.0744326
0.0745941
0.0747058
0.0747682
0.0747818
0.0747473
0.0746654
0.074537
0.0743632
0.0741451
0.073884
0.0735813
0.0732386
0.0728574
0.0724396
0.071987
0.0715016
0.0709856
0.0704411
0.0698704
0.069276
0.0686602
0.0680256
0.0673748
0.0667104
0.066035
0.0653513
0.064662
0.0639695
0.0632766
0.0625856
0.0618989
0.0612187
0.0605471
0.0598857
0.0592358
0.058602
0.0579881
0.0573497
0.0566461
0.0117723
0.0109194
0.0101618
0.00944982
0.00872785
0.00799994
0.00727096
0.00654178
0.00581351
0.00508774
0.00436623
0.00365088
0.00294366
0.00224666
0.00156197
0.00089172
0.000238056
-0.000396906
-0.00101107
-0.00160238
-0.00216883
-0.00270847
-0.00321942
-0.00369987
-0.00414808
-0.00456243
-0.00494136
-0.00528343
-0.00558731
-0.00585176
-0.00607566
-0.00625798
-0.0063978
-0.00649428
-0.00654667
-0.00655433
-0.00651671
-0.00643334
-0.00630386
-0.006128
-0.00590559
-0.00563654
-0.00532087
-0.00495865
-0.00455007
-0.00409537
-0.00359488
-0.00304899
-0.00245817
-0.00182295
-0.00114396
-0.00042187
0.000342572
0.00114855
0.0019952
0.00288159
0.00380673
0.00476958
0.00576905
0.00680399