/*--------------------------------*- C++ -*----------------------------------*\
  =========                 |
  \\      /  F ield         | OpenFOAM: The Open Source CFD Toolbox
   \\    /   O peration     | Website:  https://openfoam.org
    \\  /    A nd           | Version:  7
     \\/     M anipulation  |
\*---------------------------------------------------------------------------*/
FoamFile
{
    version     2.0;
    format      ascii;
    class       surfaceScalarField;
    location    "0.4125";
    object      phi;
}
// * * * * * * * * * * * * * * * * * * * * * * * * * * * * * * * * * * * * * //

dimensions      [0 3 -1 0 0 0 0];

internalField   nonuniform List<scalar> 
50880
(
5.90936e-12
-6.31662e-12
3.61698e-11
-3.02682e-11
8.1093e-11
-4.49276e-11
1.3075e-10
-4.96523e-11
1.78009e-10
-4.72501e-11
2.17895e-10
-3.98812e-11
2.46977e-10
-2.90865e-11
2.62942e-10
-1.59745e-11
2.64271e-10
-1.33382e-12
2.50001e-10
1.42722e-11
2.19567e-10
3.04366e-11
1.72707e-10
4.68622e-11
1.09381e-10
6.33265e-11
2.97238e-11
7.96589e-11
-6.60018e-11
9.57272e-11
-1.77431e-10
1.1143e-10
-3.04122e-10
1.26689e-10
-4.4557e-10
1.41446e-10
-6.01226e-10
1.55654e-10
-7.70501e-10
1.69276e-10
-9.52782e-10
1.82282e-10
-1.14743e-09
1.94653e-10
-1.3538e-09
2.06372e-10
-1.57123e-09
2.17428e-10
-1.79904e-09
2.27814e-10
-2.03657e-09
2.37526e-10
-2.28313e-09
2.46562e-10
-2.53805e-09
2.54923e-10
-2.80066e-09
2.62611e-10
-3.07029e-09
2.69631e-10
-3.34628e-09
2.75989e-10
-3.62797e-09
2.8169e-10
-3.91471e-09
2.86741e-10
-4.20587e-09
2.91152e-10
-4.5008e-09
2.94931e-10
-4.79889e-09
2.98089e-10
-5.09952e-09
3.00634e-10
-5.4021e-09
3.02579e-10
-5.70603e-09
3.03933e-10
-6.01074e-09
3.0471e-10
-6.31566e-09
3.04919e-10
-6.62023e-09
3.04573e-10
-6.92392e-09
3.03684e-10
-7.22618e-09
3.02264e-10
-7.52651e-09
3.00326e-10
-7.82439e-09
2.97882e-10
-8.11933e-09
2.94945e-10
-8.41086e-09
2.91527e-10
-8.6985e-09
2.87642e-10
-8.9818e-09
2.83303e-10
-9.26033e-09
2.78522e-10
-9.53364e-09
2.73312e-10
-9.80132e-09
2.67687e-10
-1.0063e-08
2.61659e-10
-1.03182e-08
2.55242e-10
-1.05667e-08
2.48448e-10
-1.0808e-08
2.41292e-10
-1.10417e-08
2.33785e-10
-1.12677e-08
2.25942e-10
-1.14855e-08
2.17776e-10
-1.16948e-08
2.09299e-10
-1.18953e-08
2.00526e-10
-1.20868e-08
1.91469e-10
-1.22689e-08
1.82143e-10
-1.24415e-08
1.72561e-10
-1.26042e-08
1.62735e-10
-1.27569e-08
1.52681e-10
-1.28993e-08
1.42412e-10
-1.30312e-08
1.31941e-10
-1.31525e-08
1.21283e-10
-1.3263e-08
1.10451e-10
-1.33624e-08
9.94598e-11
-1.34507e-08
8.83235e-11
-1.35278e-08
7.70564e-11
-1.35935e-08
6.56728e-11
-1.36477e-08
5.41874e-11
-1.36903e-08
4.26149e-11
-1.37212e-08
3.09701e-11
-1.37405e-08
1.92681e-11
-1.3748e-08
7.52382e-12
-1.37438e-08
-4.24738e-12
-1.37278e-08
-1.60301e-11
-1.37e-08
-2.7809e-11
-1.36604e-08
-3.95682e-11
-1.36091e-08
-5.12919e-11
-1.35461e-08
-6.29642e-11
-1.34716e-08
-7.45689e-11
-1.33855e-08
-8.60899e-11
-1.3288e-08
-9.75107e-11
-1.31791e-08
-1.08815e-10
-1.30592e-08
-1.19986e-10
-1.29282e-08
-1.31007e-10
-1.27863e-08
-1.41862e-10
-1.26338e-08
-1.52534e-10
-1.24708e-08
-1.63005e-10
-1.22975e-08
-1.73259e-10
-1.21142e-08
-1.83278e-10
-1.19212e-08
-1.93046e-10
-1.17186e-08
-2.02546e-10
-1.15069e-08
-2.1176e-10
-1.12862e-08
-2.20671e-10
-1.10569e-08
-2.29262e-10
-1.08194e-08
-2.37516e-10
-1.0574e-08
-2.45417e-10
-1.0321e-08
-2.52947e-10
-1.0061e-08
-2.6009e-10
-9.79413e-09
-2.66829e-10
-9.52098e-09
-2.73148e-10
-9.24195e-09
-2.79031e-10
-8.95749e-09
-2.84462e-10
-8.66806e-09
-2.89425e-10
-8.37416e-09
-2.93904e-10
-8.07627e-09
-2.97886e-10
-7.77492e-09
-3.01354e-10
-7.47063e-09
-3.04295e-10
-7.16393e-09
-3.06694e-10
-6.85539e-09
-3.08538e-10
-6.54558e-09
-3.09814e-10
-6.23507e-09
-3.1051e-10
-5.92446e-09
-3.10613e-10
-5.61435e-09
-3.10111e-10
-5.30535e-09
-3.08995e-10
-4.9981e-09
-3.07254e-10
-4.69322e-09
-3.04879e-10
-4.39136e-09
-3.0186e-10
-4.09317e-09
-2.98191e-10
-3.79931e-09
-2.93864e-10
-3.51043e-09
-2.88873e-10
-3.22722e-09
-2.83213e-10
-2.95034e-09
-2.76882e-10
-2.68046e-09
-2.69876e-10
-2.41827e-09
-2.62194e-10
-2.16443e-09
-2.53836e-10
-1.91963e-09
-2.44804e-10
-1.68453e-09
-2.35103e-10
-1.45979e-09
-2.24739e-10
-1.24607e-09
-2.13719e-10
-1.04401e-09
-2.02057e-10
-8.54242e-10
-1.89767e-10
-6.77376e-10
-1.76866e-10
-5.13997e-10
-1.6338e-10
-3.64661e-10
-1.49337e-10
-2.29888e-10
-1.34774e-10
-1.10155e-10
-1.19735e-10
-5.88081e-12
-1.04275e-10
8.25831e-11
-8.84623e-11
1.54971e-10
-7.23849e-11
2.11125e-10
-5.61516e-11
2.51023e-10
-3.98993e-11
2.74824e-10
-2.38032e-11
2.82916e-10
-8.09297e-12
2.75993e-10
6.92608e-12
2.55152e-10
2.08454e-11
2.22044e-10
3.31087e-11
1.79104e-10
4.29391e-11
1.29861e-10
4.92433e-11
7.93396e-11
5.05207e-11
3.46122e-11
4.47177e-11
5.32859e-12
2.92629e-11
5.31328e-12
3.00354e-11
-3.63598e-11
1.01179e-10
-1.01405e-10
1.95459e-10
-1.39199e-10
2.958e-10
-1.49995e-10
3.87849e-10
-1.39302e-10
4.60369e-10
-1.124e-10
5.04898e-10
-7.3616e-11
5.15249e-10
-2.63304e-11
4.87031e-10
2.68768e-11
4.17248e-10
8.40543e-11
3.03977e-10
1.43714e-10
1.4613e-10
2.04719e-10
-5.67324e-11
2.66194e-10
-3.04534e-10
3.2746e-10
-5.96795e-10
3.87984e-10
-9.32717e-10
4.47348e-10
-1.31125e-09
5.0522e-10
-1.73114e-09
5.61338e-10
-2.19098e-09
6.15497e-10
-2.68924e-09
6.67534e-10
-3.22427e-09
7.17319e-10
-3.79437e-09
7.64753e-10
-4.39776e-09
8.09761e-10
-5.03261e-09
8.52285e-10
-5.69708e-09
8.92285e-10
-6.38929e-09
9.29734e-10
-7.10735e-09
9.64619e-10
-7.84935e-09
9.96932e-10
-8.61342e-09
1.02668e-09
-9.39764e-09
1.05386e-09
-1.02001e-08
1.0785e-09
-1.10191e-08
1.10061e-09
-1.18525e-08
1.12022e-09
-1.26988e-08
1.13736e-09
-1.35559e-08
1.15205e-09
-1.44221e-08
1.16434e-09
-1.52958e-08
1.17426e-09
-1.6175e-08
1.18184e-09
-1.70582e-08
1.18714e-09
-1.79437e-08
1.19018e-09
-1.88298e-08
1.19101e-09
-1.97149e-08
1.18969e-09
-2.05975e-08
1.18625e-09
-2.14759e-08
1.18073e-09
-2.23488e-08
1.1732e-09
-2.32146e-08
1.16369e-09
-2.40719e-08
1.15225e-09
-2.49193e-08
1.13893e-09
-2.57555e-08
1.12379e-09
-2.6579e-08
1.10687e-09
-2.73887e-08
1.08822e-09
-2.81833e-08
1.06789e-09
-2.89615e-08
1.04594e-09
-2.97223e-08
1.02241e-09
-3.04644e-08
9.97349e-10
-3.11868e-08
9.70817e-10
-3.18883e-08
9.42863e-10
-3.25681e-08
9.13537e-10
-3.3225e-08
8.82892e-10
-3.38582e-08
8.50979e-10
-3.44668e-08
8.17851e-10
-3.50498e-08
7.83559e-10
-3.56065e-08
7.48158e-10
-3.61361e-08
7.117e-10
-3.66377e-08
6.74237e-10
-3.71108e-08
6.35823e-10
-3.75547e-08
5.96512e-10
-3.79686e-08
5.56359e-10
-3.83521e-08
5.15416e-10
-3.87045e-08
4.7374e-10
-3.90255e-08
4.31385e-10
-3.93144e-08
3.88407e-10
-3.9571e-08
3.44862e-10
-3.97947e-08
3.00806e-10
-3.99853e-08
2.56295e-10
-4.01425e-08
2.11388e-10
-4.02661e-08
1.66142e-10
-4.03557e-08
1.20616e-10
-4.04113e-08
7.48678e-11
-4.04328e-08
2.89574e-11
-4.04199e-08
-1.70555e-11
-4.03729e-08
-6.31104e-11
-4.02915e-08
-1.09146e-10
-4.0176e-08
-1.55102e-10
-4.00264e-08
-2.00915e-10
-3.98428e-08
-2.46523e-10
-3.96255e-08
-2.91862e-10
-3.93747e-08
-3.3687e-10
-3.90908e-08
-3.81482e-10
-3.87739e-08
-4.25634e-10
-3.84247e-08
-4.69261e-10
-3.80434e-08
-5.12298e-10
-3.76306e-08
-5.5468e-10
-3.71867e-08
-5.96339e-10
-3.67125e-08
-6.37212e-10
-3.62086e-08
-6.7723e-10
-3.56755e-08
-7.16328e-10
-3.51141e-08
-7.54438e-10
-3.45252e-08
-7.91495e-10
-3.39095e-08
-8.27432e-10
-3.3268e-08
-8.62182e-10
-3.26016e-08
-8.95679e-10
-3.19112e-08
-9.27857e-10
-3.1198e-08
-9.58651e-10
-3.04629e-08
-9.87995e-10
-2.97072e-08
-1.01582e-09
-2.8932e-08
-1.04208e-09
-2.81384e-08
-1.06669e-09
-2.73279e-08
-1.08959e-09
-2.65016e-08
-1.11073e-09
-2.5661e-08
-1.13004e-09
-2.48074e-08
-1.14747e-09
-2.39423e-08
-1.16296e-09
-2.30673e-08
-1.17644e-09
-2.21837e-08
-1.18787e-09
-2.12932e-08
-1.19719e-09
-2.03974e-08
-1.20435e-09
-1.94979e-08
-1.20931e-09
-1.85964e-08
-1.212e-09
-1.76946e-08
-1.21239e-09
-1.67943e-08
-1.21044e-09
-1.58972e-08
-1.2061e-09
-1.50051e-08
-1.19933e-09
-1.41199e-08
-1.19011e-09
-1.32433e-08
-1.1784e-09
-1.23773e-08
-1.16418e-09
-1.15238e-08
-1.14741e-09
-1.06846e-08
-1.12809e-09
-9.8616e-09
-1.10618e-09
-9.05679e-09
-1.08169e-09
-8.27205e-09
-1.05461e-09
-7.5093e-09
-1.02494e-09
-6.77045e-09
-9.92688e-10
-6.05739e-09
-9.57861e-10
-5.37201e-09
-9.20487e-10
-4.71615e-09
-8.80596e-10
-4.09164e-09
-8.38231e-10
-3.50025e-09
-7.93446e-10
-2.9437e-09
-7.46311e-10
-2.42366e-09
-6.96909e-10
-1.9417e-09
-6.45346e-10
-1.49929e-09
-5.9175e-10
-1.09778e-09
-5.3628e-10
-7.38385e-10
-4.7913e-10
-4.22124e-10
-4.20535e-10
-1.49801e-10
-3.60784e-10
7.80512e-11
-3.00236e-10
2.61239e-10
-2.39336e-10
3.99984e-10
-1.78643e-10
4.95032e-10
-1.18854e-10
5.47793e-10
-6.08572e-11
5.60516e-10
-5.7953e-12
5.36519e-10
4.48489e-11
4.8049e-10
8.91426e-11
3.9886e-10
1.24561e-10
3.00261e-10
1.47829e-10
1.95973e-10
1.54816e-10
1.00158e-10
1.40575e-10
2.92918e-11
1.00191e-10
3.45909e-11
4.48305e-11
-8.11946e-11
1.39129e-10
-1.95691e-10
2.56399e-10
-2.56452e-10
3.74998e-10
-2.68591e-10
4.76649e-10
-2.40961e-10
5.46482e-10
-1.82243e-10
5.72793e-10
-9.99293e-11
5.46623e-10
-1.59575e-13
4.61337e-10
1.12164e-10
3.12193e-10
2.33198e-10
9.59976e-11
3.59912e-10
-1.89202e-10
4.89923e-10
-5.44358e-10
6.21354e-10
-9.69615e-10
7.52717e-10
-1.46446e-09
8.82831e-10
-2.02787e-09
1.01075e-09
-2.65838e-09
1.13572e-09
-3.35418e-09
1.25714e-09
-4.1132e-09
1.37452e-09
-4.93314e-09
1.48747e-09
-5.81151e-09
1.59569e-09
-6.74568e-09
1.69893e-09
-7.73292e-09
1.797e-09
-8.7704e-09
1.88976e-09
-9.85522e-09
1.9771e-09
-1.09844e-08
2.05894e-09
-1.2155e-08
2.13524e-09
-1.33641e-08
2.20597e-09
-1.46085e-08
2.27113e-09
-1.58854e-08
2.33071e-09
-1.71916e-08
2.38474e-09
-1.85243e-08
2.43327e-09
-1.98804e-08
2.47632e-09
-2.1257e-08
2.51397e-09
-2.26512e-08
2.54626e-09
-2.40601e-08
2.57327e-09
-2.5481e-08
2.59508e-09
-2.69109e-08
2.61177e-09
-2.83472e-08
2.62341e-09
-2.97871e-08
2.63011e-09
-3.1228e-08
2.63194e-09
-3.26673e-08
2.62901e-09
-3.41025e-08
2.62142e-09
-3.5531e-08
2.60925e-09
-3.69505e-08
2.59263e-09
-3.83584e-08
2.57164e-09
-3.97526e-08
2.5464e-09
-4.11306e-08
2.51701e-09
-4.24904e-08
2.48358e-09
-4.38298e-08
2.44622e-09
-4.51466e-08
2.40503e-09
-4.64388e-08
2.36014e-09
-4.77045e-08
2.31164e-09
-4.89418e-08
2.25965e-09
-5.01487e-08
2.20429e-09
-5.13236e-08
2.14567e-09
-5.24646e-08
2.08389e-09
-5.35701e-08
2.01908e-09
-5.46386e-08
1.95134e-09
-5.56684e-08
1.8808e-09
-5.66581e-08
1.80757e-09
-5.76063e-08
1.73176e-09
-5.85116e-08
1.65349e-09
-5.93728e-08
1.57288e-09
-6.01886e-08
1.49005e-09
-6.09579e-08
1.40512e-09
-6.16796e-08
1.31819e-09
-6.23527e-08
1.22941e-09
-6.29761e-08
1.13887e-09
-6.35491e-08
1.04672e-09
-6.40708e-08
9.53062e-10
-6.45404e-08
8.58027e-10
-6.49573e-08
7.61739e-10
-6.53208e-08
6.64323e-10
-6.56304e-08
5.65905e-10
-6.58856e-08
4.66612e-10
-6.60861e-08
3.66572e-10
-6.62314e-08
2.65916e-10
-6.63213e-08
1.64774e-10
-6.63556e-08
6.32768e-11
-6.63342e-08
-3.84419e-11
-6.62571e-08
-1.40248e-10
-6.61242e-08
-2.42007e-10
-6.59357e-08
-3.43582e-10
-6.56918e-08
-4.44836e-10
-6.53927e-08
-5.4563e-10
-6.50387e-08
-6.45824e-10
-6.46303e-08
-7.45278e-10
-6.4168e-08
-8.43851e-10
-6.36522e-08
-9.41399e-10
-6.30837e-08
-1.03778e-09
-6.24631e-08
-1.13285e-09
-6.17913e-08
-1.22646e-09
-6.10692e-08
-1.31847e-09
-6.02977e-08
-1.40873e-09
-5.94778e-08
-1.4971e-09
-5.86107e-08
-1.58343e-09
-5.76976e-08
-1.66756e-09
-5.67397e-08
-1.74937e-09
-5.57385e-08
-1.82869e-09
-5.46953e-08
-1.90538e-09
-5.36116e-08
-1.97931e-09
-5.24892e-08
-2.05031e-09
-5.13296e-08
-2.11825e-09
-5.01346e-08
-2.18298e-09
-4.89061e-08
-2.24437e-09
-4.76459e-08
-2.30227e-09
-4.6356e-08
-2.35654e-09
-4.50386e-08
-2.40704e-09
-4.36956e-08
-2.45365e-09
-4.23295e-08
-2.49623e-09
-4.09423e-08
-2.53465e-09
-3.95365e-08
-2.56878e-09
-3.81144e-08
-2.5985e-09
-3.66786e-08
-2.62369e-09
-3.52315e-08
-2.64423e-09
-3.37759e-08
-2.66002e-09
-3.23142e-08
-2.67094e-09
-3.08493e-08
-2.6769e-09
-2.9384e-08
-2.67779e-09
-2.79209e-08
-2.67352e-09
-2.6463e-08
-2.66401e-09
-2.50131e-08
-2.64918e-09
-2.35743e-08
-2.62896e-09
-2.21494e-08
-2.60328e-09
-2.07415e-08
-2.57209e-09
-1.93535e-08
-2.53533e-09
-1.79887e-08
-2.49297e-09
-1.66499e-08
-2.44499e-09
-1.53402e-08
-2.39136e-09
-1.40627e-08
-2.33207e-09
-1.28205e-08
-2.26715e-09
-1.16166e-08
-2.19661e-09
-1.0454e-08
-2.1205e-09
-9.33559e-09
-2.03886e-09
-8.26439e-09
-1.9518e-09
-7.24322e-09
-1.8594e-09
-6.27485e-09
-1.76182e-09
-5.36196e-09
-1.6592e-09
-4.5071e-09
-1.55177e-09
-3.71268e-09
-1.43976e-09
-2.98093e-09
-1.3235e-09
-2.31388e-09
-1.20334e-09
-1.71327e-09
-1.07973e-09
-1.18057e-09
-9.53233e-10
-7.1686e-10
-8.24497e-10
-3.22762e-10
-6.94335e-10
1.64226e-12
-5.63742e-10
2.56949e-10
-4.33947e-10
4.44573e-10
-3.06473e-10
5.66934e-10
-1.83218e-10
6.27697e-10
-6.6561e-11
6.32052e-10
4.04941e-11
5.8705e-10
1.34153e-10
5.01974e-10
2.09643e-10
3.88738e-10
2.61051e-10
2.62252e-10
2.81272e-10
1.40568e-10
2.62243e-10
4.47263e-11
1.96064e-10
7.93098e-11
4.97006e-11
-1.30893e-10
1.50294e-10
-2.96284e-10
2.69179e-10
-3.75329e-10
3.81159e-10
-3.80564e-10
4.65422e-10
-3.25228e-10
5.04903e-10
-2.21733e-10
4.85886e-10
-8.09193e-11
3.97599e-10
8.81277e-11
2.31807e-10
2.7796e-10
-1.75472e-11
4.82556e-10
-3.54695e-10
6.97062e-10
-7.82349e-10
9.17577e-10
-1.30196e-09
1.14096e-09
-1.91394e-09
1.36469e-09
-2.61784e-09
1.58673e-09
-3.41251e-09
1.80542e-09
-4.29622e-09
2.01943e-09
-5.26675e-09
2.22767e-09
-6.3215e-09
2.42927e-09
-7.45754e-09
2.62352e-09
-8.67169e-09
2.80985e-09
-9.96056e-09
2.98779e-09
-1.13206e-08
3.157e-09
-1.2748e-08
3.31719e-09
-1.4239e-08
3.46814e-09
-1.57898e-08
3.60971e-09
-1.73963e-08
3.74178e-09
-1.90546e-08
3.86428e-09
-2.07607e-08
3.97719e-09
-2.25105e-08
4.08051e-09
-2.43e-08
4.17424e-09
-2.61252e-08
4.25846e-09
-2.79821e-08
4.33321e-09
-2.98667e-08
4.39858e-09
-3.17751e-08
4.45468e-09
-3.37035e-08
4.50161e-09
-3.56479e-08
4.5395e-09
-3.76046e-08
4.56848e-09
-3.95699e-08
4.58869e-09
-4.154e-08
4.60028e-09
-4.35115e-08
4.6034e-09
-4.54807e-08
4.59821e-09
-4.74442e-08
4.58489e-09
-4.93985e-08
4.5636e-09
-5.13404e-08
4.53452e-09
-5.32666e-08
4.49782e-09
-5.51739e-08
4.45368e-09
-5.70592e-08
4.4023e-09
-5.89194e-08
4.34385e-09
-6.07517e-08
4.27853e-09
-6.25532e-08
4.20652e-09
-6.43211e-08
4.12801e-09
-6.60527e-08
4.04321e-09
-6.77453e-08
3.95229e-09
-6.93965e-08
3.85547e-09
-7.10037e-08
3.75293e-09
-7.25647e-08
3.64487e-09
-7.40771e-08
3.5315e-09
-7.55388e-08
3.41301e-09
-7.69476e-08
3.2896e-09
-7.83015e-08
3.16148e-09
-7.95986e-08
3.02885e-09
-8.0837e-08
2.89192e-09
-8.2015e-08
2.75088e-09
-8.31309e-08
2.60595e-09
-8.41832e-08
2.45734e-09
-8.51702e-08
2.30525e-09
-8.60907e-08
2.14989e-09
-8.69433e-08
1.99148e-09
-8.77268e-08
1.83022e-09
-8.84401e-08
1.66635e-09
-8.90821e-08
1.50006e-09
-8.9652e-08
1.33158e-09
-9.01488e-08
1.16113e-09
-9.05718e-08
9.88926e-10
-9.09204e-08
8.15198e-10
-9.1194e-08
6.4017e-10
-9.13921e-08
4.64068e-10
-9.15145e-08
2.87121e-10
-9.15608e-08
1.0956e-10
-9.15308e-08
-6.83807e-11
-9.14246e-08
-2.46467e-10
-9.12422e-08
-4.24462e-10
-9.09836e-08
-6.02126e-10
-9.06492e-08
-7.79219e-10
-9.02394e-08
-9.55498e-10
-8.97545e-08
-1.13072e-09
-8.91951e-08
-1.30463e-09
-8.8562e-08
-1.47699e-09
-8.78558e-08
-1.64755e-09
-8.70775e-08
-1.81606e-09
-8.62281e-08
-1.98226e-09
-8.53087e-08
-2.14591e-09
-8.43204e-08
-2.30674e-09
-8.32646e-08
-2.4645e-09
-8.21428e-08
-2.61894e-09
-8.09564e-08
-2.7698e-09
-7.97072e-08
-2.91683e-09
-7.83968e-08
-3.05976e-09
-7.70271e-08
-3.19835e-09
-7.56001e-08
-3.33233e-09
-7.4118e-08
-3.46146e-09
-7.25828e-08
-3.58549e-09
-7.09969e-08
-3.70415e-09
-6.93627e-08
-3.8172e-09
-6.76827e-08
-3.9244e-09
-6.59594e-08
-4.0255e-09
-6.41957e-08
-4.12027e-09
-6.23943e-08
-4.20845e-09
-6.05581e-08
-4.28982e-09
-5.86902e-08
-4.36416e-09
-5.67936e-08
-4.43123e-09
-5.48716e-08
-4.49082e-09
-5.29274e-08
-4.54271e-09
-5.09643e-08
-4.58671e-09
-4.8986e-08
-4.6226e-09
-4.69958e-08
-4.6502e-09
-4.49974e-08
-4.66933e-09
-4.29945e-08
-4.6798e-09
-4.09908e-08
-4.68146e-09
-3.89902e-08
-4.67415e-09
-3.69965e-08
-4.65773e-09
-3.50136e-08
-4.63205e-09
-3.30456e-08
-4.597e-09
-3.10964e-08
-4.55248e-09
-2.917e-08
-4.4984e-09
-2.72707e-08
-4.43467e-09
-2.54024e-08
-4.36124e-09
-2.35694e-08
-4.27807e-09
-2.17756e-08
-4.18514e-09
-2.00252e-08
-4.08246e-09
-1.83223e-08
-3.97004e-09
-1.6671e-08
-3.84796e-09
-1.50752e-08
-3.71628e-09
-1.35389e-08
-3.57514e-09
-1.2066e-08
-3.4247e-09
-1.06602e-08
-3.26516e-09
-9.32528e-09
-3.09677e-09
-8.06462e-09
-2.91985e-09
-6.8816e-09
-2.73479e-09
-5.77931e-09
-2.54205e-09
-4.76062e-09
-2.34219e-09
-3.82808e-09
-2.13588e-09
-2.98388e-09
-1.92394e-09
-2.22978e-09
-1.70733e-09
-1.56702e-09
-1.48725e-09
-9.96239e-10
-1.26511e-09
-5.17337e-10
-1.04265e-09
-1.29326e-10
-8.21961e-10
1.69832e-10
-6.05629e-10
3.83437e-10
-3.96817e-10
5.16294e-10
-1.99416e-10
5.75008e-10
-1.82216e-11
5.68303e-10
1.4086e-10
5.07361e-10
2.70596e-10
4.0617e-10
3.62254e-10
2.81869e-10
4.0557e-10
1.55089e-10
3.89e-10
5.05685e-11
3.0059e-10
1.29875e-10
4.75031e-11
-1.78387e-10
1.40234e-10
-3.89022e-10
2.42734e-10
-4.77834e-10
3.2762e-10
-4.65449e-10
3.72519e-10
-3.70127e-10
3.5907e-10
-2.08289e-10
2.7236e-10
5.784e-12
1.00489e-10
2.59996e-10
-1.65809e-10
5.44263e-10
-5.33508e-10
8.50261e-10
-1.0076e-09
1.17116e-09
-1.5914e-09
1.50137e-09
-2.28675e-09
1.83632e-09
-3.09433e-09
2.17227e-09
-4.01377e-09
2.50617e-09
-5.04385e-09
2.8355e-09
-6.18266e-09
3.15823e-09
-7.42765e-09
3.47267e-09
-8.77581e-09
3.77744e-09
-1.02237e-08
4.07142e-09
-1.17676e-08
4.3537e-09
-1.34033e-08
4.62355e-09
-1.51267e-08
4.88036e-09
-1.69332e-08
5.12368e-09
-1.88182e-08
5.35315e-09
-2.07769e-08
5.56849e-09
-2.28047e-08
5.7695e-09
-2.48964e-08
5.95607e-09
-2.70473e-08
6.1281e-09
-2.92524e-08
6.28559e-09
-3.15067e-08
6.42853e-09
-3.38052e-08
6.55699e-09
-3.61431e-08
6.67105e-09
-3.85153e-08
6.77082e-09
-4.09171e-08
6.85644e-09
-4.33435e-08
6.92806e-09
-4.57899e-08
6.98586e-09
-4.82515e-08
7.03004e-09
-5.07236e-08
7.0608e-09
-5.32016e-08
7.07835e-09
-5.56812e-08
7.08294e-09
-5.81577e-08
7.07479e-09
-6.0627e-08
7.05416e-09
-6.30847e-08
7.0213e-09
-6.55267e-08
6.97648e-09
-6.79488e-08
6.91997e-09
-7.03472e-08
6.85203e-09
-7.27178e-08
6.77295e-09
-7.5057e-08
6.68301e-09
-7.7361e-08
6.5825e-09
-7.96262e-08
6.47171e-09
-8.18491e-08
6.35092e-09
-8.40263e-08
6.22044e-09
-8.61546e-08
6.08056e-09
-8.82307e-08
5.93158e-09
-9.02516e-08
5.77381e-09
-9.22142e-08
5.60754e-09
-9.41158e-08
5.43309e-09
-9.59536e-08
5.25075e-09
-9.77248e-08
5.06085e-09
-9.9427e-08
4.86369e-09
-1.01058e-07
4.65958e-09
-1.02615e-07
4.44885e-09
-1.04096e-07
4.2318e-09
-1.05498e-07
4.00875e-09
-1.06821e-07
3.78003e-09
-1.08062e-07
3.54596e-09
-1.09219e-07
3.30685e-09
-1.1029e-07
3.06305e-09
-1.11275e-07
2.81488e-09
-1.12171e-07
2.56267e-09
-1.12978e-07
2.30675e-09
-1.13694e-07
2.04746e-09
-1.14318e-07
1.78515e-09
-1.14849e-07
1.52014e-09
-1.15287e-07
1.2528e-09
-1.1563e-07
9.83454e-10
-1.15878e-07
7.12468e-10
-1.16031e-07
4.40191e-10
-1.16089e-07
1.6698e-10
-1.1605e-07
-1.06807e-10
-1.15916e-07
-3.80806e-10
-1.15686e-07
-6.54652e-10
-1.1536e-07
-9.27978e-10
-1.14939e-07
-1.20041e-09
-1.14423e-07
-1.47158e-09
-1.13812e-07
-1.7411e-09
-1.13108e-07
-2.00861e-09
-1.12312e-07
-2.2737e-09
-1.11423e-07
-2.53602e-09
-1.10444e-07
-2.79516e-09
-1.09376e-07
-3.05074e-09
-1.08219e-07
-3.30237e-09
-1.06976e-07
-3.54966e-09
-1.05649e-07
-3.79221e-09
-1.04238e-07
-4.02965e-09
-1.02746e-07
-4.26156e-09
-1.01175e-07
-4.48757e-09
-9.95279e-08
-4.70727e-09
-9.7806e-08
-4.92028e-09
-9.60121e-08
-5.1262e-09
-9.41489e-08
-5.32464e-09
-9.22192e-08
-5.51523e-09
-9.02258e-08
-5.69757e-09
-8.81717e-08
-5.87129e-09
-8.60601e-08
-6.036e-09
-8.38943e-08
-6.19133e-09
-8.16776e-08
-6.33692e-09
-7.94136e-08
-6.47241e-09
-7.7106e-08
-6.59743e-09
-7.47586e-08
-6.71164e-09
-7.23751e-08
-6.81471e-09
-6.99596e-08
-6.90628e-09
-6.75163e-08
-6.98606e-09
-6.50493e-08
-7.05371e-09
-6.25629e-08
-7.10895e-09
-6.00616e-08
-7.15147e-09
-5.755e-08
-7.18101e-09
-5.50325e-08
-7.1973e-09
-5.25139e-08
-7.20009e-09
-4.99989e-08
-7.18915e-09
-4.74923e-08
-7.16426e-09
-4.49991e-08
-7.12524e-09
-4.25242e-08
-7.0719e-09
-4.00726e-08
-7.0041e-09
-3.76493e-08
-6.92169e-09
-3.52594e-08
-6.82458e-09
-3.2908e-08
-6.71269e-09
-3.06001e-08
-6.58597e-09
-2.83408e-08
-6.4444e-09
-2.61353e-08
-6.28801e-09
-2.39884e-08
-6.11686e-09
-2.19054e-08
-5.93104e-09
-1.98909e-08
-5.73072e-09
-1.795e-08
-5.5161e-09
-1.60872e-08
-5.28746e-09
-1.43072e-08
-5.04512e-09
-1.26145e-08
-4.78952e-09
-1.10132e-08
-4.52116e-09
-9.50729e-09
-4.24067e-09
-8.10055e-09
-3.94878e-09
-6.79634e-09
-3.6464e-09
-5.59764e-09
-3.33458e-09
-4.50698e-09
-3.0146e-09
-3.52635e-09
-2.68797e-09
-2.65709e-09
-2.35651e-09
-1.89981e-09
-2.02239e-09
-1.25423e-09
-1.68824e-09
-7.19002e-10
-1.35719e-09
-2.91591e-10
-1.03304e-09
3.19949e-11
-7.20399e-10
2.57414e-10
-4.24828e-10
3.92261e-10
-1.53067e-10
4.46369e-10
8.67463e-11
4.3212e-10
2.84841e-10
3.64778e-10
4.29604e-10
2.62871e-10
5.07486e-10
1.48714e-10
5.03145e-10
4.94414e-11
3.99856e-10
1.79315e-10
4.04052e-11
-2.18786e-10
1.1423e-10
-4.62851e-10
1.85729e-10
-5.49346e-10
2.26753e-10
-5.06479e-10
2.14257e-10
-3.57632e-10
1.29277e-10
-1.23308e-10
-4.36958e-11
1.78755e-10
-3.17164e-10
5.33464e-10
-7.00986e-10
9.28089e-10
-1.2027e-09
1.35197e-09
-1.82778e-09
1.79624e-09
-2.57993e-09
2.25353e-09
-3.46133e-09
2.71771e-09
-4.4728e-09
3.18374e-09
-5.61406e-09
3.64742e-09
-6.88382e-09
4.10527e-09
-8.28002e-09
4.55443e-09
-9.79987e-09
4.99252e-09
-1.144e-08
5.41756e-09
-1.31965e-08
5.82796e-09
-1.50652e-08
6.22237e-09
-1.70414e-08
6.59972e-09
-1.91201e-08
6.95913e-09
-2.12963e-08
7.29989e-09
-2.35647e-08
7.62146e-09
-2.59196e-08
7.92341e-09
-2.83555e-08
8.20543e-09
-3.08667e-08
8.4673e-09
-3.34475e-08
8.70889e-09
-3.60921e-08
8.93012e-09
-3.87945e-08
9.13099e-09
-4.15491e-08
9.31154e-09
-4.43499e-08
9.47189e-09
-4.71912e-08
9.61215e-09
-5.00673e-08
9.73251e-09
-5.29724e-08
9.83316e-09
-5.59009e-08
9.91435e-09
-5.88472e-08
9.97633e-09
-6.18058e-08
1.00194e-08
-6.47712e-08
1.00438e-08
-6.77381e-08
1.00499e-08
-7.07013e-08
1.0038e-08
-7.36555e-08
1.00084e-08
-7.65957e-08
9.96155e-09
-7.9517e-08
9.89777e-09
-8.24145e-08
9.81744e-09
-8.52834e-08
9.72093e-09
-8.81191e-08
9.60864e-09
-9.09171e-08
9.48096e-09
-9.36729e-08
9.3383e-09
-9.63822e-08
9.18106e-09
-9.90409e-08
9.00966e-09
-1.01645e-07
8.8245e-09
-1.0419e-07
8.62601e-09
-1.06673e-07
8.41461e-09
-1.0909e-07
8.19073e-09
-1.11438e-07
7.9548e-09
-1.13712e-07
7.70726e-09
-1.1591e-07
7.44853e-09
-1.18028e-07
7.17905e-09
-1.20063e-07
6.89928e-09
-1.22013e-07
6.60964e-09
-1.23875e-07
6.31059e-09
-1.25646e-07
6.00259e-09
-1.27323e-07
5.68607e-09
-1.28905e-07
5.3615e-09
-1.30388e-07
5.02933e-09
-1.31771e-07
4.69003e-09
-1.33052e-07
4.34407e-09
-1.34229e-07
3.9919e-09
-1.35301e-07
3.634e-09
-1.36265e-07
3.27085e-09
-1.3712e-07
2.90293e-09
-1.37866e-07
2.53071e-09
-1.385e-07
2.15469e-09
-1.39023e-07
1.77535e-09
-1.39433e-07
1.39319e-09
-1.39729e-07
1.00871e-09
-1.39911e-07
6.2241e-10
-1.39979e-07
2.34798e-10
-1.39932e-07
-1.53617e-10
-1.39771e-07
-5.42318e-10
-1.39494e-07
-9.30787e-10
-1.39104e-07
-1.3185e-09
-1.38599e-07
-1.70493e-09
-1.37981e-07
-2.08955e-09
-1.37251e-07
-2.47182e-09
-1.36408e-07
-2.85121e-09
-1.35455e-07
-3.22717e-09
-1.34392e-07
-3.59915e-09
-1.3322e-07
-3.96662e-09
-1.31942e-07
-4.32903e-09
-1.30558e-07
-4.68581e-09
-1.29072e-07
-5.03642e-09
-1.27483e-07
-5.3803e-09
-1.25796e-07
-5.7169e-09
-1.24012e-07
-6.04566e-09
-1.22134e-07
-6.36602e-09
-1.20163e-07
-6.67744e-09
-1.18104e-07
-6.97935e-09
-1.15959e-07
-7.2712e-09
-1.13732e-07
-7.55245e-09
-1.11424e-07
-7.82255e-09
-1.09041e-07
-8.08096e-09
-1.06585e-07
-8.32713e-09
-1.0406e-07
-8.56054e-09
-1.01471e-07
-8.78067e-09
-9.88211e-08
-8.98699e-09
-9.61145e-08
-9.17899e-09
-9.33557e-08
-9.35619e-09
-9.05493e-08
-9.51807e-09
-8.76998e-08
-9.66418e-09
-8.48121e-08
-9.79404e-09
-8.18909e-08
-9.9072e-09
-7.89414e-08
-1.00032e-08
-7.59687e-08
-1.00817e-08
-7.2978e-08
-1.01422e-08
-6.99746e-08
-1.01844e-08
-6.69641e-08
-1.02078e-08
-6.3952e-08
-1.02122e-08
-6.09439e-08
-1.01972e-08
-5.79456e-08
-1.01626e-08
-5.49629e-08
-1.0108e-08
-5.20015e-08
-1.00333e-08
-4.90674e-08
-9.93816e-09
-4.61666e-08
-9.8225e-09
-4.3305e-08
-9.68617e-09
-4.04887e-08
-9.52906e-09
-3.77235e-08
-9.35114e-09
-3.50155e-08
-9.15238e-09
-3.23707e-08
-8.93286e-09
-2.97948e-08
-8.69267e-09
-2.72939e-08
-8.43199e-09
-2.48736e-08
-8.15105e-09
-2.25395e-08
-7.85019e-09
-2.02971e-08
-7.5298e-09
-1.81518e-08
-7.19042e-09
-1.61087e-08
-6.83265e-09
-1.41726e-08
-6.45727e-09
-1.23481e-08
-6.06518e-09
-1.06394e-08
-5.65747e-09
-9.05037e-09
-5.23544e-09
-7.58433e-09
-4.80061e-09
-6.24411e-09
-4.35482e-09
-5.03187e-09
-3.9002e-09
-3.94905e-09
-3.43933e-09
-2.99621e-09
-2.97523e-09
-2.17293e-09
-2.51152e-09
-1.47761e-09
-2.05251e-09
-9.07331e-10
-1.60333e-09
-4.57624e-10
-1.17011e-09
-1.22256e-10
-7.60189e-10
1.07003e-10
-3.82317e-10
2.40651e-10
-4.68999e-11
2.91748e-10
2.33737e-10
2.76248e-10
4.45101e-10
2.13418e-10
5.70325e-10
1.26423e-10
5.90139e-10
4.3411e-11
4.82861e-10
2.22727e-10
2.99481e-11
-2.48735e-10
7.65679e-11
-5.0947e-10
1.05569e-10
-5.78356e-10
8.92314e-11
-4.9015e-10
4.64551e-12
-2.7305e-10
-1.67159e-10
4.84985e-11
-4.41795e-10
4.53397e-10
-8.3195e-10
9.23622e-10
-1.34771e-09
1.44385e-09
-1.99686e-09
2.00113e-09
-2.78514e-09
2.58452e-09
-3.71646e-09
3.18484e-09
-4.79313e-09
3.79439e-09
-6.0161e-09
4.4067e-09
-7.38508e-09
5.01639e-09
-8.89873e-09
5.61892e-09
-1.05548e-08
6.21052e-09
-1.23503e-08
6.78804e-09
-1.42816e-08
7.34884e-09
-1.63444e-08
7.89075e-09
-1.8534e-08
8.41195e-09
-2.08452e-08
8.91097e-09
-2.32727e-08
9.38658e-09
-2.58106e-08
9.8378e-09
-2.8453e-08
1.02638e-08
-3.11937e-08
1.06641e-08
-3.40264e-08
1.10381e-08
-3.69446e-08
1.13856e-08
-3.9942e-08
1.17062e-08
-4.30118e-08
1.19999e-08
-4.61475e-08
1.22667e-08
-4.93425e-08
1.25065e-08
-5.259e-08
1.27195e-08
-5.58837e-08
1.29058e-08
-5.92167e-08
1.30656e-08
-6.25828e-08
1.31992e-08
-6.59753e-08
1.33069e-08
-6.93878e-08
1.33889e-08
-7.28142e-08
1.34457e-08
-7.62481e-08
1.34776e-08
-7.96833e-08
1.34851e-08
-8.31139e-08
1.34685e-08
-8.65339e-08
1.34284e-08
-8.99374e-08
1.33651e-08
-9.33189e-08
1.32792e-08
-9.66725e-08
1.31711e-08
-9.9993e-08
1.30414e-08
-1.03275e-07
1.28905e-08
-1.06513e-07
1.2719e-08
-1.09702e-07
1.25275e-08
-1.12837e-07
1.23164e-08
-1.15914e-07
1.20863e-08
-1.18927e-07
1.18378e-08
-1.21873e-07
1.15714e-08
-1.24746e-07
1.12877e-08
-1.27542e-07
1.09873e-08
-1.30258e-07
1.06707e-08
-1.3289e-07
1.03385e-08
-1.35432e-07
9.99132e-09
-1.37883e-07
9.62971e-09
-1.40238e-07
9.25429e-09
-1.42494e-07
8.86564e-09
-1.44648e-07
8.46436e-09
-1.46696e-07
8.05106e-09
-1.48637e-07
7.62634e-09
-1.50466e-07
7.19081e-09
-1.52182e-07
6.7451e-09
-1.53781e-07
6.28982e-09
-1.55263e-07
5.82559e-09
-1.56624e-07
5.35306e-09
-1.57863e-07
4.87284e-09
-1.58978e-07
4.38558e-09
-1.59967e-07
3.89192e-09
-1.60828e-07
3.39252e-09
-1.61562e-07
2.88802e-09
-1.62166e-07
2.37909e-09
-1.62639e-07
1.86638e-09
-1.62981e-07
1.35057e-09
-1.6319e-07
8.32341e-10
-1.63268e-07
3.12365e-10
-1.63213e-07
-2.0867e-10
-1.63025e-07
-7.30071e-10
-1.62705e-07
-1.25114e-09
-1.62252e-07
-1.77118e-09
-1.61668e-07
-2.28948e-09
-1.60952e-07
-2.80532e-09
-1.60106e-07
-3.318e-09
-1.5913e-07
-3.82678e-09
-1.58026e-07
-4.33095e-09
-1.56796e-07
-4.82976e-09
-1.5544e-07
-5.3225e-09
-1.5396e-07
-5.80842e-09
-1.5236e-07
-6.28679e-09
-1.50639e-07
-6.75686e-09
-1.48801e-07
-7.21788e-09
-1.46849e-07
-7.66913e-09
-1.44785e-07
-8.10985e-09
-1.42612e-07
-8.53929e-09
-1.40333e-07
-8.95673e-09
-1.3795e-07
-9.36141e-09
-1.35469e-07
-9.7526e-09
-1.32892e-07
-1.01296e-08
-1.30223e-07
-1.04916e-08
-1.27466e-07
-1.08379e-08
-1.24625e-07
-1.11679e-08
-1.21705e-07
-1.14807e-08
-1.1871e-07
-1.17758e-08
-1.15645e-07
-1.20523e-08
-1.12514e-07
-1.23097e-08
-1.09323e-07
-1.25472e-08
-1.06077e-07
-1.27643e-08
-1.02781e-07
-1.29603e-08
-9.94401e-08
-1.31345e-08
-9.60609e-08
-1.32864e-08
-9.26487e-08
-1.34154e-08
-8.92095e-08
-1.35209e-08
-8.57493e-08
-1.36024e-08
-8.22742e-08
-1.36594e-08
-7.87905e-08
-1.36915e-08
-7.53046e-08
-1.36981e-08
-7.18229e-08
-1.36789e-08
-6.83521e-08
-1.36334e-08
-6.48987e-08
-1.35614e-08
-6.14694e-08
-1.34625e-08
-5.8071e-08
-1.33365e-08
-5.47104e-08
-1.31832e-08
-5.13942e-08
-1.30023e-08
-4.81294e-08
-1.27939e-08
-4.49227e-08
-1.25578e-08
-4.1781e-08
-1.22941e-08
-3.8711e-08
-1.20028e-08
-3.57195e-08
-1.16842e-08
-3.2813e-08
-1.13385e-08
-2.9998e-08
-1.0966e-08
-2.72808e-08
-1.05673e-08
-2.46678e-08
-1.01429e-08
-2.21648e-08
-9.69344e-09
-1.97775e-08
-9.21992e-09
-1.75114e-08
-8.72335e-09
-1.53716e-08
-8.205e-09
-1.33627e-08
-7.66634e-09
-1.1489e-08
-7.10914e-09
-9.75418e-09
-6.53546e-09
-8.16123e-09
-5.94776e-09
-6.71252e-09
-5.34891e-09
-5.40957e-09
-4.74228e-09
-4.25295e-09
-4.13185e-09
-3.24214e-09
-3.52233e-09
-2.3754e-09
-2.91925e-09
-1.64958e-09
-2.32916e-09
-1.05992e-09
-1.75978e-09
-5.99869e-10
-1.22024e-09
-2.6087e-10
-7.21308e-10
-3.21104e-11
-2.7565e-10
9.97382e-11
1.0189e-10
1.50845e-10
3.93991e-10
1.40636e-10
5.80537e-10
9.23541e-11
6.38425e-10
3.39727e-11
5.41242e-10
2.56702e-10
1.72339e-11
-2.65978e-10
3.05684e-11
-5.22804e-10
8.2437e-12
-5.5603e-10
-7.61219e-11
-4.05787e-10
-2.44627e-10
-1.04548e-10
-5.15732e-10
3.19605e-10
-9.04735e-10
8.42407e-10
-1.42415e-09
1.44304e-09
-2.08398e-09
2.1037e-09
-2.89202e-09
2.80917e-09
-3.854e-09
3.54651e-09
-4.97389e-09
4.30473e-09
-6.25403e-09
5.07452e-09
-7.69533e-09
5.848e-09
-9.29746e-09
6.61852e-09
-1.1059e-08
7.38044e-09
-1.29775e-08
8.12903e-09
-1.50498e-08
8.8603e-09
-1.72718e-08
9.5709e-09
-1.96391e-08
1.0258e-08
-2.21464e-08
1.09193e-08
-2.47883e-08
1.15529e-08
-2.75588e-08
1.2157e-08
-3.04515e-08
1.27305e-08
-3.346e-08
1.32723e-08
-3.65774e-08
1.37815e-08
-3.97968e-08
1.42575e-08
-4.31111e-08
1.46999e-08
-4.65131e-08
1.51082e-08
-4.99956e-08
1.54824e-08
-5.35511e-08
1.58222e-08
-5.71724e-08
1.61278e-08
-6.0852e-08
1.63991e-08
-6.45827e-08
1.66364e-08
-6.83571e-08
1.684e-08
-7.21679e-08
1.701e-08
-7.60079e-08
1.71468e-08
-7.98699e-08
1.72509e-08
-8.37469e-08
1.73227e-08
-8.76319e-08
1.73626e-08
-9.15179e-08
1.73712e-08
-9.53983e-08
1.73489e-08
-9.92663e-08
1.72964e-08
-1.03115e-07
1.72142e-08
-1.06939e-07
1.7103e-08
-1.10731e-07
1.69632e-08
-1.14486e-07
1.67957e-08
-1.18196e-07
1.6601e-08
-1.21857e-07
1.63799e-08
-1.25463e-07
1.61329e-08