/*--------------------------------*- C++ -*----------------------------------*\
  =========                 |
  \\      /  F ield         | OpenFOAM: The Open Source CFD Toolbox
   \\    /   O peration     | Website:  https://openfoam.org
    \\  /    A nd           | Version:  7
     \\/     M anipulation  |
\*---------------------------------------------------------------------------*/
FoamFile
{
    version     2.0;
    format      ascii;
    class       volVectorField;
    location    "0.4125";
    object      U;
}
// * * * * * * * * * * * * * * * * * * * * * * * * * * * * * * * * * * * * * //

dimensions      [0 1 -1 0 0 0 0];

internalField   nonuniform List<vector> 
25600
(
(1.7476e-07 -2.09516e-07 0)
(2.831e-06 -1.79727e-06 0)
(9.07231e-06 -2.83473e-06 0)
(1.69267e-05 -3.2073e-06 0)
(2.48876e-05 -3.12347e-06 0)
(3.20062e-05 -2.74599e-06 0)
(3.76291e-05 -2.18176e-06 0)
(4.13066e-05 -1.50142e-06 0)
(4.27399e-05 -7.51453e-07 0)
(4.17366e-05 3.74857e-08 0)
(3.81789e-05 8.44848e-07 0)
(3.20038e-05 1.65664e-06 0)
(2.31895e-05 2.46294e-06 0)
(1.17454e-05 3.25645e-06 0)
(-2.29538e-06 4.03166e-06 0)
(-1.88816e-05 4.78454e-06 0)
(-3.7948e-05 5.51221e-06 0)
(-5.94183e-05 6.21255e-06 0)
(-8.32075e-05 6.88397e-06 0)
(-0.000109224 7.52522e-06 0)
(-0.000137372 8.13541e-06 0)
(-0.000167551 8.71393e-06 0)
(-0.000199658 9.2604e-06 0)
(-0.000233587 9.77459e-06 0)
(-0.000269232 1.02564e-05 0)
(-0.000306485 1.0706e-05 0)
(-0.000345238 1.11234e-05 0)
(-0.000385383 1.15089e-05 0)
(-0.000426811 1.18628e-05 0)
(-0.000469416 1.21853e-05 0)
(-0.000513091 1.24769e-05 0)
(-0.00055773 1.2738e-05 0)
(-0.00060323 1.2969e-05 0)
(-0.000649486 1.31704e-05 0)
(-0.000696397 1.33427e-05 0)
(-0.000743863 1.34863e-05 0)
(-0.000791785 1.36019e-05 0)
(-0.000840065 1.36901e-05 0)
(-0.000888609 1.37512e-05 0)
(-0.000937322 1.3786e-05 0)
(-0.000986115 1.3795e-05 0)
(-0.0010349 1.37787e-05 0)
(-0.00108358 1.37378e-05 0)
(-0.00113207 1.36727e-05 0)
(-0.0011803 1.35842e-05 0)
(-0.00122818 1.34729e-05 0)
(-0.00127562 1.33392e-05 0)
(-0.00132256 1.31838e-05 0)
(-0.00136891 1.30073e-05 0)
(-0.0014146 1.28104e-05 0)
(-0.00145957 1.25935e-05 0)
(-0.00150373 1.23573e-05 0)
(-0.00154703 1.21024e-05 0)
(-0.00158939 1.18294e-05 0)
(-0.00163076 1.15389e-05 0)
(-0.00167106 1.12315e-05 0)
(-0.00171026 1.09077e-05 0)
(-0.00174828 1.05682e-05 0)
(-0.00178507 1.02136e-05 0)
(-0.00182058 9.84448e-06 0)
(-0.00185476 9.4614e-06 0)
(-0.00188755 9.06499e-06 0)
(-0.00191892 8.65586e-06 0)
(-0.00194882 8.23459e-06 0)
(-0.00197721 7.80181e-06 0)
(-0.00200404 7.35812e-06 0)
(-0.00202928 6.90412e-06 0)
(-0.0020529 6.44044e-06 0)
(-0.00207486 5.96769e-06 0)
(-0.00209512 5.48649e-06 0)
(-0.00211367 4.99746e-06 0)
(-0.00213047 4.50124e-06 0)
(-0.00214549 3.99846e-06 0)
(-0.00215873 3.48976e-06 0)
(-0.00217015 2.97578e-06 0)
(-0.00217974 2.45717e-06 0)
(-0.00218749 1.9346e-06 0)
(-0.00219338 1.40872e-06 0)
(-0.0021974 8.80199e-07 0)
(-0.00219955 3.4972e-07 0)
(-0.00219981 -1.82039e-07 0)
(-0.00219819 -7.14389e-07 0)
(-0.00219468 -1.24664e-06 0)
(-0.00218929 -1.77808e-06 0)
(-0.00218202 -2.308e-06 0)
(-0.00217288 -2.83569e-06 0)
(-0.00216187 -3.36042e-06 0)
(-0.00214901 -3.88146e-06 0)
(-0.00213432 -4.39807e-06 0)
(-0.00211781 -4.90951e-06 0)
(-0.0020995 -5.41504e-06 0)
(-0.00207941 -5.9139e-06 0)
(-0.00205758 -6.40535e-06 0)
(-0.00203402 -6.88862e-06 0)
(-0.00200877 -7.36293e-06 0)
(-0.00198186 -7.82753e-06 0)
(-0.00195332 -8.28163e-06 0)
(-0.00192321 -8.72446e-06 0)
(-0.00189155 -9.15524e-06 0)
(-0.00185839 -9.57319e-06 0)
(-0.00182379 -9.97753e-06 0)
(-0.00178778 -1.03675e-05 0)
(-0.00175042 -1.07423e-05 0)
(-0.00171177 -1.11011e-05 0)
(-0.00167189 -1.14433e-05 0)
(-0.00163083 -1.1768e-05 0)
(-0.00158866 -1.20745e-05 0)
(-0.00154545 -1.23619e-05 0)
(-0.00150126 -1.26297e-05 0)
(-0.00145616 -1.2877e-05 0)
(-0.00141023 -1.31031e-05 0)
(-0.00136354 -1.33073e-05 0)
(-0.00131618 -1.34889e-05 0)
(-0.00126822 -1.36471e-05 0)
(-0.00121975 -1.37815e-05 0)
(-0.00117085 -1.38911e-05 0)
(-0.00112161 -1.39756e-05 0)
(-0.00107212 -1.40341e-05 0)
(-0.00102247 -1.40661e-05 0)
(-0.000972754 -1.40711e-05 0)
(-0.000923073 -1.40484e-05 0)
(-0.00087352 -1.39976e-05 0)
(-0.000824196 -1.39181e-05 0)
(-0.0007752 -1.38095e-05 0)
(-0.000726636 -1.36713e-05 0)
(-0.000678606 -1.35031e-05 0)
(-0.000631216 -1.33046e-05 0)
(-0.000584572 -1.30753e-05 0)
(-0.000538779 -1.2815e-05 0)
(-0.000493945 -1.25235e-05 0)
(-0.000450178 -1.22006e-05 0)
(-0.000407587 -1.1846e-05 0)
(-0.000366278 -1.14596e-05 0)
(-0.000326361 -1.10415e-05 0)
(-0.000287943 -1.05917e-05 0)
(-0.00025113 -1.01103e-05 0)
(-0.000216029 -9.59739e-06 0)
(-0.000182742 -9.05344e-06 0)
(-0.000151373 -8.47884e-06 0)
(-0.00012202 -7.87417e-06 0)
(-9.47789e-05 -7.2402e-06 0)
(-6.97418e-05 -6.57797e-06 0)
(-4.69949e-05 -5.88878e-06 0)
(-2.66183e-05 -5.1742e-06 0)
(-8.68416e-06 -4.43623e-06 0)
(6.74517e-06 -3.67752e-06 0)
(1.96196e-05 -2.90155e-06 0)
(2.99043e-05 -2.1128e-06 0)
(3.75835e-05 -1.31696e-06 0)
(4.26665e-05 -5.21631e-07 0)
(4.51947e-05 2.62697e-07 0)
(4.52516e-05 1.02128e-06 0)
(4.29761e-05 1.73322e-06 0)
(3.85822e-05 2.36805e-06 0)
(3.23894e-05 2.87964e-06 0)
(2.48658e-05 3.19734e-06 0)
(1.66784e-05 3.21588e-06 0)
(8.77941e-06 2.77881e-06 0)
(2.64412e-06 1.69477e-06 0)
(1.22619e-07 1.21472e-07 0)
(1.77431e-06 -2.88309e-06 0)
(9.37709e-06 -9.41823e-06 0)
(2.31362e-05 -1.34219e-05 0)
(3.9379e-05 -1.47313e-05 0)
(5.52633e-05 -1.39664e-05 0)
(6.87967e-05 -1.16991e-05 0)
(7.84397e-05 -8.36956e-06 0)
(8.30343e-05 -4.30629e-06 0)
(8.17489e-05 2.50683e-07 0)
(7.40057e-05 5.12623e-06 0)
(5.94216e-05 1.01913e-05 0)
(3.77635e-05 1.53499e-05 0)
(8.91542e-06 2.05298e-05 0)
(-2.7147e-05 2.56759e-05 0)
(-7.03756e-05 3.07455e-05 0)
(-0.000120665 3.57054e-05 0)
(-0.000177865 4.053e-05 0)
(-0.000241791 4.51994e-05 0)
(-0.000312226 4.96978e-05 0)
(-0.000388936 5.40133e-05 0)
(-0.000471665 5.81363e-05 0)
(-0.000560143 6.20595e-05 0)
(-0.000654092 6.57776e-05 0)
(-0.000753223 6.92868e-05 0)
(-0.000857243 7.25845e-05 0)
(-0.000965851 7.56691e-05 0)
(-0.00107875 7.85401e-05 0)
(-0.00119563 8.11974e-05 0)
(-0.00131619 8.36416e-05 0)
(-0.00144012 8.5874e-05 0)
(-0.00156714 8.7896e-05 0)
(-0.00169692 8.97097e-05 0)
(-0.00182919 9.13173e-05 0)
(-0.00196364 9.27214e-05 0)
(-0.00209997 9.39247e-05 0)
(-0.00223791 9.49304e-05 0)
(-0.00237717 9.57415e-05 0)
(-0.00251747 9.63615e-05 0)
(-0.00265854 9.67938e-05 0)
(-0.0028001 9.7042e-05 0)
(-0.00294188 9.71097e-05 0)
(-0.00308364 9.70007e-05 0)
(-0.00322512 9.67188e-05 0)
(-0.00336606 9.62679e-05 0)
(-0.00350623 9.56518e-05 0)
(-0.00364538 9.48746e-05 0)
(-0.00378329 9.39403e-05 0)
(-0.00391972 9.2853e-05 0)
(-0.00405445 9.16167e-05 0)
(-0.00418728 9.02355e-05 0)
(-0.00431799 8.87136e-05 0)
(-0.00444639 8.70551e-05 0)
(-0.00457226 8.52641e-05 0)
(-0.00469542 8.33448e-05 0)
(-0.0048157 8.13013e-05 0)
(-0.0049329 7.91378e-05 0)
(-0.00504685 7.68586e-05 0)
(-0.0051574 7.44679e-05 0)
(-0.00526437 7.19698e-05 0)
(-0.00536762 6.93685e-05 0)
(-0.005467 6.66685e-05 0)
(-0.00556236 6.38738e-05 0)
(-0.00565357 6.09888e-05 0)
(-0.0057405 5.80179e-05 0)
(-0.00582303 5.49652e-05 0)
(-0.00590103 5.18352e-05 0)
(-0.00597441 4.86321e-05 0)
(-0.00604306 4.53605e-05 0)
(-0.00610688 4.20246e-05 0)
(-0.00616577 3.8629e-05 0)
(-0.00621966 3.51781e-05 0)
(-0.00626847 3.16765e-05 0)
(-0.00631213 2.81286e-05 0)
(-0.00635056 2.4539e-05 0)
(-0.00638373 2.09123e-05 0)
(-0.00641156 1.72533e-05 0)
(-0.00643403 1.35665e-05 0)
(-0.00645109 9.85674e-06 0)
(-0.00646272 6.12878e-06 0)
(-0.00646888 2.38743e-06 0)
(-0.00646958 -1.36244e-06 0)
(-0.00646478 -5.11593e-06 0)
(-0.00645451 -8.86808e-06 0)
(-0.00643876 -1.26139e-05 0)
(-0.00641754 -1.63483e-05 0)
(-0.00639088 -2.00663e-05 0)
(-0.0063588 -2.37627e-05 0)
(-0.00632134 -2.74322e-05 0)
(-0.00627855 -3.10698e-05 0)
(-0.00623047 -3.46702e-05 0)
(-0.00617717 -3.8228e-05 0)
(-0.0061187 -4.1738e-05 0)
(-0.00605515 -4.51949e-05 0)
(-0.0059866 -4.85932e-05 0)
(-0.00591314 -5.19277e-05 0)
(-0.00583486 -5.51928e-05 0)
(-0.00575187 -5.83831e-05 0)
(-0.00566428 -6.14932e-05 0)
(-0.00557222 -6.45177e-05 0)
(-0.00547582 -6.7451e-05 0)
(-0.00537521 -7.02878e-05 0)
(-0.00527053 -7.30227e-05 0)
(-0.00516195 -7.56502e-05 0)
(-0.00504962 -7.8165e-05 0)
(-0.00493372 -8.05617e-05 0)
(-0.00481441 -8.2835e-05 0)
(-0.00469188 -8.49797e-05 0)
(-0.00456633 -8.69905e-05 0)
(-0.00443795 -8.88624e-05 0)
(-0.00430695 -9.05903e-05 0)
(-0.00417355 -9.21691e-05 0)
(-0.00403796 -9.3594e-05 0)
(-0.00390041 -9.48603e-05 0)
(-0.00376113 -9.59632e-05 0)
(-0.00362038 -9.68981e-05 0)
(-0.00347839 -9.76607e-05 0)
(-0.00333542 -9.82467e-05 0)
(-0.00319173 -9.86518e-05 0)
(-0.00304759 -9.88722e-05 0)
(-0.00290326 -9.89041e-05 0)
(-0.00275902 -9.87438e-05 0)
(-0.00261515 -9.8388e-05 0)
(-0.00247195 -9.78335e-05 0)
(-0.00232969 -9.70772e-05 0)
(-0.00218867 -9.61166e-05 0)
(-0.0020492 -9.49492e-05 0)
(-0.00191156 -9.35729e-05 0)
(-0.00177606 -9.19858e-05 0)
(-0.00164301 -9.01864e-05 0)
(-0.00151272 -8.81737e-05 0)
(-0.00138548 -8.5947e-05 0)
(-0.0012616 -8.35059e-05 0)
(-0.0011414 -8.08508e-05 0)
(-0.00102517 -7.79823e-05 0)
(-0.000913222 -7.4902e-05 0)
(-0.000805851 -7.16118e-05 0)
(-0.000703351 -6.81149e-05 0)
(-0.00060601 -6.4415e-05 0)
(-0.000514109 -6.05172e-05 0)
(-0.000427919 -5.64276e-05 0)
(-0.0003477 -5.21542e-05 0)
(-0.000273695 -4.77065e-05 0)
(-0.000206132 -4.30967e-05 0)
(-0.000145217 -3.83394e-05 0)
(-9.11292e-05 -3.34527e-05 0)
(-4.40175e-05 -2.84593e-05 0)
(-3.99063e-06 -2.33872e-05 0)
(2.88906e-05 -1.82722e-05 0)
(5.46246e-05 -1.31589e-05 0)
(7.32845e-05 -8.10437e-06 0)
(8.50366e-05 -3.1824e-06 0)
(9.0166e-05 1.50981e-06 0)
(8.91085e-05 5.84295e-06 0)
(8.24917e-05 9.64326e-06 0)
(7.11919e-05 1.26746e-05 0)
(5.64018e-05 1.46163e-05 0)
(3.96811e-05 1.5044e-05 0)
(2.30161e-05 1.34185e-05 0)
(9.18415e-06 9.18401e-06 0)
(1.6966e-06 2.64087e-06 0)
(2.8236e-06 -9.09527e-06 0)
(1.34053e-05 -2.31682e-05 0)
(3.10717e-05 -3.1076e-05 0)
(5.08465e-05 -3.31421e-05 0)
(6.91282e-05 -3.04644e-05 0)
(8.33567e-05 -2.41369e-05 0)
(9.14496e-05 -1.50877e-05 0)
(9.17657e-05 -4.06158e-06 0)
(8.30718e-05 8.36154e-06 0)
(6.4473e-05 2.17342e-05 0)
(3.53473e-05 3.57114e-05 0)
(-4.70677e-06 5.00262e-05 0)
(-5.59131e-05 6.44713e-05 0)
(-0.000118353 7.88844e-05 0)
(-0.000191991 9.31381e-05 0)
(-0.0002767 0.000107131 0)
(-0.000372277 0.000120784 0)
(-0.000478458 0.000134033 0)
(-0.00059493 0.000146828 0)
(-0.000721341 0.000159127 0)
(-0.000857306 0.000170901 0)
(-0.00100242 0.000182124 0)
(-0.00115624 0.000192777 0)
(-0.00131833 0.000202847 0)
(-0.00148823 0.000212322 0)
(-0.00166547 0.000221196 0)
(-0.00184957 0.000229464 0)
(-0.00204007 0.000237125 0)
(-0.00223646 0.000244179 0)
(-0.00243829 0.000250627 0)
(-0.00264505 0.000256473 0)
(-0.00285628 0.00026172 0)
(-0.0030715 0.000266375 0)
(-0.00329023 0.000270443 0)
(-0.00351201 0.000273933 0)
(-0.00373638 0.000276851 0)
(-0.00396287 0.000279207 0)
(-0.00419104 0.00028101 0)
(-0.00442045 0.000282268 0)
(-0.00465065 0.000282991 0)
(-0.00488122 0.000283191 0)
(-0.00511174 0.000282877 0)
(-0.0053418 0.00028206 0)
(-0.005571 0.000280751 0)
(-0.00579893 0.000278961 0)
(-0.00602521 0.000276702 0)
(-0.00624947 0.000273984 0)
(-0.00647134 0.00027082 0)
(-0.00669046 0.000267221 0)
(-0.00690647 0.000263199 0)
(-0.00711905 0.000258767 0)
(-0.00732785 0.000253934 0)
(-0.00753257 0.000248715 0)
(-0.00773288 0.000243121 0)
(-0.00792848 0.000237163 0)
(-0.0081191 0.000230855 0)
(-0.00830443 0.000224208 0)
(-0.00848422 0.000217235 0)
(-0.00865821 0.000209948 0)
(-0.00882613 0.000202359 0)
(-0.00898775 0.000194481 0)
(-0.00914284 0.000186326 0)
(-0.00929117 0.000177907 0)
(-0.00943254 0.000169236 0)
(-0.00956675 0.000160327 0)
(-0.0096936 0.000151191 0)
(-0.00981292 0.000141842 0)
(-0.00992454 0.000132292 0)
(-0.0100283 0.000122554 0)
(-0.010124 0.000112642 0)
(-0.0102116 0.000102569 0)
(-0.010291 9.23468e-05 0)
(-0.0103619 8.19902e-05 0)
(-0.0104244 7.15121e-05 0)
(-0.0104783 6.0926e-05 0)
(-0.0105235 5.02457e-05 0)
(-0.0105599 3.94849e-05 0)
(-0.0105876 2.86576e-05 0)
(-0.0106064 1.77776e-05 0)
(-0.0106164 6.85917e-06 0)
(-0.0106174 -4.08342e-06 0)
(-0.0106095 -1.50358e-05 0)
(-0.0105927 -2.59835e-05 0)
(-0.010567 -3.69118e-05 0)
(-0.0105324 -4.7806e-05 0)
(-0.010489 -5.86511e-05 0)
(-0.0104367 -6.94322e-05 0)
(-0.0103757 -8.01342e-05 0)
(-0.010306 -9.07418e-05 0)
(-0.0102277 -0.00010124 0)
(-0.010141 -0.000111612 0)
(-0.0100458 -0.000121845 0)
(-0.00994238 -0.00013192 0)
(-0.00983083 -0.000141824 0)
(-0.0097113 -0.000151541 0)
(-0.00958394 -0.000161054 0)
(-0.00944894 -0.000170348 0)
(-0.00930647 -0.000179407 0)
(-0.00915674 -0.000188215 0)
(-0.00899995 -0.000196757 0)
(-0.00883634 -0.000205016 0)
(-0.00866613 -0.000212977 0)
(-0.00848958 -0.000220624 0)
(-0.00830695 -0.000227942 0)
(-0.00811851 -0.000234915 0)
(-0.00792455 -0.000241528 0)
(-0.00772537 -0.000247765 0)
(-0.00752129 -0.000253612 0)
(-0.00731262 -0.000259054 0)
(-0.00709971 -0.000264076 0)
(-0.00688289 -0.000268664 0)
(-0.00666253 -0.000272804 0)
(-0.00643899 -0.000276482 0)
(-0.00621267 -0.000279685 0)
(-0.00598394 -0.000282399 0)
(-0.00575321 -0.000284612 0)
(-0.00552088 -0.000286313 0)
(-0.00528739 -0.000287488 0)
(-0.00505316 -0.000288128 0)
(-0.00481863 -0.000288221 0)
(-0.00458424 -0.000287757 0)
(-0.00435044 -0.000286726 0)
(-0.00411771 -0.000285121 0)
(-0.00388649 -0.000282933 0)
(-0.00365728 -0.000280154 0)
(-0.00343053 -0.000276779 0)
(-0.00320675 -0.000272801 0)
(-0.0029864 -0.000268217 0)
(-0.00276998 -0.000263022 0)
(-0.00255799 -0.000257215 0)
(-0.0023509 -0.000250794 0)
(-0.0021492 -0.000243761 0)
(-0.00195339 -0.000236116 0)
(-0.00176395 -0.000227864 0)
(-0.00158135 -0.00021901 0)
(-0.00140607 -0.000209562 0)
(-0.00123857 -0.000199532 0)
(-0.0010793 -0.000188931 0)
(-0.000928693 -0.000177778 0)
(-0.000787175 -0.000166093 0)
(-0.000655141 -0.000153902 0)
(-0.000532965 -0.000141237 0)
(-0.000420986 -0.000128136 0)
(-0.00031951 -0.000114646 0)
(-0.000228796 -0.000100824 0)
(-0.00014905 -8.67408e-05 0)
(-8.04119e-05 -7.24821e-05 0)
(-2.29425e-05 -5.81551e-05 0)
(2.33943e-05 -4.38929e-05 0)
(5.87528e-05 -2.9862e-05 0)
(8.34316e-05 -1.62725e-05 0)
(9.79079e-05 -3.39183e-06 0)
(0.000102878 8.43685e-06 0)
(9.93069e-05 1.87718e-05 0)
(8.84882e-05 2.70459e-05 0)
(7.21084e-05 3.25402e-05 0)
(5.22726e-05 3.43722e-05 0)
(3.15295e-05 3.15235e-05 0)
(1.34176e-05 2.30212e-05 0)
(2.77769e-06 8.77385e-06 0)
(3.20652e-06 -1.69407e-05 0)
(1.47532e-05 -3.94237e-05 0)
(3.32172e-05 -5.08609e-05 0)
(5.2734e-05 -5.26219e-05 0)
(6.91967e-05 -4.64423e-05 0)
(7.96933e-05 -3.39947e-05 0)
(8.18115e-05 -1.67384e-05 0)
(7.36018e-05 4.11365e-06 0)
(5.35567e-05 2.75814e-05 0)
(2.05474e-05 5.28822e-05 0)
(-2.62361e-05 7.93943e-05 0)
(-8.73381e-05 0.000106624 0)
(-0.000163082 0.000134178 0)
(-0.00025361 0.000161745 0)
(-0.000358912 0.000189072 0)
(-0.000478855 0.00021596 0)
(-0.000613203 0.000242247 0)
(-0.000761637 0.000267802 0)
(-0.000923769 0.000292522 0)
(-0.00109915 0.000316322 0)
(-0.0012873 0.000339135 0)
(-0.00148768 0.000360908 0)
(-0.00169973 0.000381599 0)
(-0.00192288 0.000401177 0)
(-0.00215651 0.000419617 0)
(-0.00240001 0.000436902 0)
(-0.00265275 0.000453021 0)
(-0.0029141 0.000467967 0)
(-0.00318341 0.000481737 0)
(-0.00346004 0.000494333 0)
(-0.00374334 0.000505759 0)
(-0.00403267 0.000516021 0)
(-0.0043274 0.000525128 0)
(-0.00462688 0.000533092 0)
(-0.00493047 0.000539924 0)
(-0.00523757 0.000545641 0)
(-0.00554754 0.000550256 0)
(-0.00585978 0.000553787 0)
(-0.00617369 0.000556251 0)
(-0.00648867 0.000557667 0)
(-0.00680414 0.000558054 0)
(-0.00711953 0.000557432 0)
(-0.00743428 0.000555821 0)
(-0.00774785 0.000553243 0)
(-0.00805968 0.00054972 0)
(-0.00836925 0.000545271 0)
(-0.00867605 0.000539921 0)
(-0.00897958 0.000533692 0)
(-0.00927934 0.000526605 0)
(-0.00957487 0.000518685 0)
(-0.00986568 0.000509955 0)
(-0.0101513 0.000500437 0)
(-0.0104314 0.000490155 0)
(-0.0107054 0.000479133 0)
(-0.010973 0.000467395 0)
(-0.0112338 0.000454965 0)
(-0.0114874 0.000441866 0)
(-0.0117333 0.000428123 0)
(-0.0119713 0.00041376 0)
(-0.0122011 0.000398802 0)
(-0.0124222 0.000383273 0)
(-0.0126343 0.000367197 0)
(-0.0128372 0.0003506 0)
(-0.0130306 0.000333505 0)
(-0.0132142 0.00031594 0)
(-0.0133877 0.000297927 0)
(-0.0135509 0.000279494 0)
(-0.0137036 0.000260665 0)
(-0.0138455 0.000241465 0)
(-0.0139764 0.000221921 0)
(-0.0140962 0.000202059 0)
(-0.0142046 0.000181905 0)
(-0.0143016 0.000161485 0)
(-0.014387 0.000140826 0)
(-0.0144606 0.000119954 0)
(-0.0145224 9.88975e-05 0)
(-0.0145721 7.76826e-05 0)
(-0.0146099 5.63371e-05 0)
(-0.0146356 3.48888e-05 0)
(-0.0146491 1.33656e-05 0)
(-0.0146504 -8.20425e-06 0)
(-0.0146395 -2.97923e-05 0)
(-0.0146164 -5.13699e-05 0)
(-0.0145811 -7.29081e-05 0)
(-0.0145336 -9.43778e-05 0)
(-0.0144741 -0.000115749 0)
(-0.0144025 -0.000136993 0)
(-0.0143189 -0.00015808 0)
(-0.0142235 -0.000178979 0)
(-0.0141163 -0.00019966 0)
(-0.0139975 -0.000220094 0)
(-0.0138673 -0.000240248 0)
(-0.0137257 -0.000260094 0)
(-0.013573 -0.000279599 0)
(-0.0134095 -0.000298732 0)
(-0.0132352 -0.000317464 0)
(-0.0130505 -0.000335762 0)
(-0.0128556 -0.000353597 0)
(-0.0126507 -0.000370935 0)
(-0.0124362 -0.000387747 0)
(-0.0122124 -0.000404002 0)
(-0.0119796 -0.000419668 0)
(-0.0117381 -0.000434715 0)
(-0.0114884 -0.000449113 0)
(-0.0112306 -0.000462831 0)
(-0.0109654 -0.000475838 0)
(-0.010693 -0.000488107 0)
(-0.010414 -0.000499606 0)
(-0.0101286 -0.000510307 0)
(-0.00983752 -0.000520182 0)
(-0.00954107 -0.000529203 0)
(-0.00923978 -0.000537342 0)
(-0.00893416 -0.000544573 0)
(-0.00862473 -0.000550869 0)
(-0.00831202 -0.000556206 0)
(-0.00799657 -0.000560559 0)
(-0.00767894 -0.000563904 0)
(-0.00735971 -0.000566219 0)
(-0.00703946 -0.000567483 0)
(-0.00671878 -0.000567674 0)
(-0.00639828 -0.000566775 0)
(-0.00607858 -0.000564766 0)
(-0.0057603 -0.000561631 0)
(-0.00544406 -0.000557356 0)
(-0.00513052 -0.000551926 0)
(-0.00482032 -0.000545331 0)
(-0.00451411 -0.00053756 0)
(-0.00421253 -0.000528606 0)
(-0.00391626 -0.000518463 0)
(-0.00362595 -0.000507128 0)
(-0.00334225 -0.000494601 0)
(-0.00306583 -0.000480884 0)
(-0.00279733 -0.000465983 0)
(-0.0025374 -0.000449907 0)
(-0.00228668 -0.00043267 0)
(-0.00204579 -0.00041429 0)
(-0.00181535 -0.00039479 0)
(-0.00159595 -0.0003742 0)
(-0.00138817 -0.000352557 0)
(-0.00119255 -0.000329905 0)
(-0.00100961 -0.000306299 0)
(-0.00083982 -0.000281806 0)
(-0.000683628 -0.000256505 0)
(-0.00054141 -0.000230492 0)
(-0.000413487 -0.000203886 0)
(-0.000300101 -0.000176827 0)
(-0.000201407 -0.00014949 0)
(-0.000117454 -0.000122084 0)
(-4.8161e-05 -9.48692e-05 0)
(6.70712e-06 -6.8166e-05 0)
(4.75683e-05 -4.23707e-05 0)
(7.50606e-05 -1.79763e-05 0)
(9.00845e-05 4.40154e-06 0)
(9.38527e-05 2.39942e-05 0)
(8.79462e-05 3.98473e-05 0)
(7.43715e-05 5.07948e-05 0)
(5.55701e-05 5.5455e-05 0)
(3.44455e-05 5.22754e-05 0)
(1.50635e-05 3.97026e-05 0)
(3.21503e-06 1.66727e-05 0)
(3.13521e-06 -2.49213e-05 0)
(1.40486e-05 -5.53761e-05 0)
(3.06806e-05 -6.92228e-05 0)
(4.67919e-05 -6.91211e-05 0)
(5.79968e-05 -5.7583e-05 0)
(6.11622e-05 -3.69086e-05 0)
(5.36789e-05 -9.10491e-06 0)
(3.34116e-05 2.41347e-05 0)
(-1.32101e-06 6.14097e-05 0)
(-5.18047e-05 0.000101575 0)
(-0.000118985 0.000143701 0)
(-0.000203514 0.000187032 0)
(-0.000305796 0.000230959 0)
(-0.000426025 0.000274984 0)
(-0.000564218 0.000318706 0)
(-0.000720242 0.000361798 0)
(-0.000893842 0.000403994 0)
(-0.00108466 0.000445076 0)
(-0.00129224 0.000484869 0)
(-0.00151606 0.000523229 0)
(-0.00175556 0.00056004 0)
(-0.00201009 0.000595211 0)
(-0.002279 0.000628667 0)
(-0.00256157 0.00066035 0)
(-0.00285707 0.000690217 0)
(-0.00316477 0.000718234 0)
(-0.00348388 0.000744378 0)
(-0.00381363 0.000768635 0)
(-0.00415325 0.000790997 0)
(-0.00450192 0.000811462 0)
(-0.00485887 0.000830034 0)
(-0.00522329 0.000846721 0)
(-0.0055944 0.000861535 0)
(-0.0059714 0.000874492 0)
(-0.00635351 0.000885612 0)
(-0.00673996 0.000894915 0)
(-0.00712997 0.000902424 0)
(-0.0075228 0.000908167 0)
(-0.00791767 0.00091217 0)
(-0.00831387 0.000914463 0)
(-0.00871066 0.000915075 0)
(-0.00910732 0.000914038 0)
(-0.00950316 0.000911385 0)
(-0.00989748 0.00090715 0)
(-0.0102896 0.000901367 0)
(-0.0106789 0.000894072 0)
(-0.0110647 0.000885299 0)
(-0.0114464 0.000875085 0)
(-0.0118233 0.000863468 0)
(-0.0121949 0.000850483 0)
(-0.0125606 0.00083617 0)
(-0.0129198 0.000820566 0)
(-0.0132719 0.000803709 0)
(-0.0136165 0.000785637 0)
(-0.013953 0.000766391 0)
(-0.0142808 0.000746008 0)
(-0.0145996 0.000724528 0)
(-0.0149089 0.00070199 0)
(-0.0152082 0.000678435 0)
(-0.015497 0.000653903 0)
(-0.015775 0.000628433 0)
(-0.0160417 0.000602066 0)
(-0.0162968 0.000574843 0)
(-0.0165399 0.000546804 0)
(-0.0167707 0.000517991 0)
(-0.0169888 0.000488445 0)
(-0.0171939 0.000458208 0)
(-0.0173858 0.000427321 0)
(-0.0175642 0.000395827 0)
(-0.0177287 0.000363769 0)
(-0.0178793 0.000331188 0)
(-0.0180155 0.000298128 0)
(-0.0181374 0.000264633 0)
(-0.0182446 0.000230746 0)
(-0.0183371 0.000196512 0)
(-0.0184146 0.000161974 0)
(-0.0184771 0.000127178 0)
(-0.0185245 9.21695e-05 0)
(-0.0185566 5.69931e-05 0)
(-0.0185735 2.16952e-05 0)
(-0.018575 -1.36778e-05 0)
(-0.0185612 -4.90791e-05 0)
(-0.018532 -8.44615e-05 0)
(-0.0184875 -0.000119778 0)
(-0.0184277 -0.000154979 0)
(-0.0183527 -0.000190019 0)
(-0.0182626 -0.000224847 0)
(-0.0181574 -0.000259414 0)
(-0.0180373 -0.000293673 0)
(-0.0179024 -0.000327572 0)
(-0.017753 -0.000361063 0)
(-0.0175891 -0.000394094 0)
(-0.0174111 -0.000426616 0)
(-0.0172191 -0.000458578 0)
(-0.0170133 -0.00048993 0)
(-0.0167942 -0.000520621 0)
(-0.0165619 -0.000550599 0)
(-0.0163168 -0.000579815 0)
(-0.0160593 -0.000608216 0)
(-0.0157896 -0.000635753 0)
(-0.0155083 -0.000662375 0)
(-0.0152156 -0.000688032 0)
(-0.014912 -0.000712673 0)
(-0.0145981 -0.000736248 0)
(-0.0142742 -0.000758709 0)
(-0.0139408 -0.000780006 0)
(-0.0135984 -0.000800091 0)
(-0.0132477 -0.000818916 0)
(-0.0128891 -0.000836434 0)
(-0.0125232 -0.000852599 0)
(-0.0121507 -0.000867366 0)
(-0.011772 -0.00088069 0)
(-0.011388 -0.000892528 0)
(-0.0109991 -0.000902838 0)
(-0.0106061 -0.00091158 0)
(-0.0102097 -0.000918713 0)
(-0.00981047 -0.0009242 0)
(-0.00940925 -0.000928006 0)
(-0.00900673 -0.000930094 0)
(-0.00860366 -0.000930434 0)
(-0.00820078 -0.000928993 0)
(-0.00779886 -0.000925745 0)
(-0.00739869 -0.000920663 0)
(-0.00700104 -0.000913723 0)
(-0.00660672 -0.000904906 0)
(-0.00621653 -0.000894193 0)
(-0.00583127 -0.00088157 0)
(-0.00545176 -0.000867026 0)
(-0.00507881 -0.000850554 0)
(-0.00471323 -0.00083215 0)
(-0.00435585 -0.000811817 0)
(-0.00400746 -0.00078956 0)
(-0.00366887 -0.000765393 0)
(-0.00334087 -0.000739332 0)
(-0.00302425 -0.000711404 0)
(-0.00271976 -0.000681642 0)
(-0.00242817 -0.000650087 0)
(-0.00215018 -0.000616792 0)
(-0.00188649 -0.000581821 0)
(-0.00163776 -0.000545252 0)
(-0.00140461 -0.00050718 0)
(-0.00118761 -0.000467717 0)
(-0.000987266 -0.000427 0)
(-0.000804028 -0.000385191 0)
(-0.000638258 -0.000342485 0)
(-0.000490228 -0.000299119 0)
(-0.000360099 -0.000255374 0)
(-0.000247901 -0.000211593 0)
(-0.000153513 -0.00016819 0)
(-7.66313e-05 -0.000125671 0)
(-1.6742e-05 -8.46498e-05 0)
(2.69165e-05 -4.58797e-05 0)
(5.53931e-05 -1.0279e-05 0)
(7.00694e-05 2.10321e-05 0)
(7.27121e-05 4.66949e-05 0)
(6.55254e-05 6.50836e-05 0)
(5.116e-05 7.42966e-05 0)
(3.27541e-05 7.21917e-05 0)
(1.46872e-05 5.64862e-05 0)
(3.20354e-06 2.48758e-05 0)
(2.77367e-06 -3.20972e-05 0)
(1.18643e-05 -6.90629e-05 0)
(2.45556e-05 -8.36448e-05 0)
(3.46893e-05 -7.97811e-05 0)
(3.78185e-05 -6.08137e-05 0)
(3.0696e-05 -2.96988e-05 0)
(1.06145e-05 1.10003e-05 0)
(-2.46569e-05 5.91068e-05 0)
(-7.68956e-05 0.000112795 0)
(-0.000147481 0.000170546 0)
(-0.000237442 0.000231106 0)
(-0.000347506 0.000293439 0)
(-0.000478131 0.000356695 0)
(-0.00062955 0.000420173 0)
(-0.0008018 0.000483297 0)
(-0.000994749 0.000545592 0)
(-0.00120812 0.00060667 0)
(-0.00144153 0.000666208 0)
(-0.00169447 0.000723942 0)
(-0.00196637 0.000779658 0)
(-0.00225656 0.000833177 0)
(-0.00256434 0.000884358 0)
(-0.00288893 0.000933084 0)
(-0.00322954 0.000979265 0)
(-0.00358532 0.00102283 0)
(-0.0039554 0.00106372 0)
(-0.00433889 0.0011019 0)
(-0.00473489 0.00113735 0)
(-0.00514249 0.00117004 0)
(-0.00556074 0.00119997 0)
(-0.00598873 0.00122714 0)
(-0.00642553 0.00125156 0)
(-0.00687019 0.00127325 0)
(-0.00732179 0.00129222 0)
(-0.00777941 0.0013085 0)
(-0.00824213 0.00132212 0)
(-0.00870905 0.0013331 0)
(-0.00917925 0.0013415 0)
(-0.00965185 0.00134734 0)
(-0.010126 0.00135066 0)
(-0.0106008 0.00135152 0)
(-0.0110754 0.00134995 0)
(-0.011549 0.001346 0)
(-0.0120208 0.00133972 0)
(-0.0124899 0.00133116 0)
(-0.0129556 0.00132037 0)
(-0.0134171 0.0013074 0)
(-0.0138736 0.00129231 0)
(-0.0143245 0.00127515 0)
(-0.014769 0.00125597 0)
(-0.0152063 0.00123483 0)
(-0.015636 0.00121178 0)
(-0.0160571 0.00118688 0)
(-0.0164693 0.00116019 0)
(-0.0168717 0.00113176 0)
(-0.0172638 0.00110166 0)
(-0.0176451 0.00106993 0)
(-0.0180149 0.00103664 0)
(-0.0183728 0.00100185 0)
(-0.0187182 0.00096561 0)
(-0.0190506 0.000927987 0)
(-0.0193696 0.000889038 0)
(-0.0196747 0.000848824 0)
(-0.0199654 0.000807405 0)
(-0.0202413 0.000764841 0)
(-0.0205021 0.000721194 0)
(-0.0207474 0.000676526 0)
(-0.0209768 0.000630899 0)
(-0.02119 0.000584374 0)
(-0.0213867 0.000537016 0)
(-0.0215667 0.000488887 0)
(-0.0217295 0.00044005 0)
(-0.0218752 0.000390572 0)
(-0.0220033 0.000340515 0)
(-0.0221137 0.000289946 0)
(-0.0222063 0.000238931 0)
(-0.022281 0.000187535 0)
(-0.0223375 0.000135827 0)
(-0.0223758 8.38723e-05 0)
(-0.0223958 3.17404e-05 0)
(-0.0223975 -2.05005e-05 0)
(-0.0223808 -7.27811e-05 0)
(-0.0223458 -0.000125032 0)
(-0.0222924 -0.000177182 0)
(-0.0222208 -0.000229161 0)
(-0.022131 -0.000280897 0)
(-0.0220231 -0.000332319 0)
(-0.0218972 -0.000383354 0)
(-0.0217534 -0.00043393 0)
(-0.021592 -0.000483973 0)
(-0.0214132 -0.000533409 0)
(-0.0212172 -0.000582165 0)
(-0.0210042 -0.000630166 0)
(-0.0207745 -0.000677338 0)
(-0.0205284 -0.000723607 0)
(-0.0202663 -0.000768897 0)
(-0.0199885 -0.000813133 0)
(-0.0196954 -0.000856241 0)
(-0.0193874 -0.000898145 0)
(-0.0190649 -0.000938772 0)
(-0.0187285 -0.000978046 0)
(-0.0183785 -0.00101589 0)
(-0.0180156 -0.00105224 0)
(-0.0176402 -0.00108702 0)
(-0.0172529 -0.00112015 0)
(-0.0168543 -0.00115156 0)
(-0.016445 -0.00118118 0)
(-0.0160257 -0.00120895 0)
(-0.015597 -0.00123478 0)
(-0.0151596 -0.00125863 0)
(-0.0147142 -0.00128041 0)
(-0.0142616 -0.00130007 0)
(-0.0138024 -0.00131753 0)
(-0.0133375 -0.00133275 0)
(-0.0128676 -0.00134566 0)
(-0.0123936 -0.0013562 0)
(-0.0119163 -0.00136432 0)
(-0.0114366 -0.00136997 0)
(-0.0109553 -0.00137309 0)
(-0.0104732 -0.00137365 0)
(-0.0099914 -0.00137159 0)
(-0.00951066 -0.00136687 0)
(-0.00903194 -0.00135947 0)
(-0.00855618 -0.00134934 0)
(-0.00808431 -0.00133645 0)
(-0.00761728 -0.0013208 0)
(-0.00715605 -0.00130234 0)
(-0.00670157 -0.00128108 0)
(-0.00625481 -0.001257 0)
(-0.00581672 -0.0012301 0)
(-0.00538826 -0.00120039 0)
(-0.00497037 -0.00116788 0)
(-0.004564 -0.00113258 0)
(-0.00417007 -0.00109454 0)
(-0.0037895 -0.00105379 0)
(-0.00342317 -0.00101038 0)
(-0.00307195 -0.000964389 0)
(-0.00273667 -0.00091589 0)
(-0.00241815 -0.000864985 0)
(-0.00211712 -0.000811794 0)
(-0.00183431 -0.000756462 0)
(-0.00157035 -0.000699161 0)
(-0.00132582 -0.000640095 0)
(-0.00110122 -0.000579509 0)
(-0.000896948 -0.000517693 0)
(-0.000713303 -0.000454993 0)
(-0.000550447 -0.000391822 0)
(-0.000408397 -0.000328674 0)
(-0.000286998 -0.000266143 0)
(-0.000185896 -0.000204937 0)
(-0.000104509 -0.000145915 0)
(-4.1989e-05 -9.01037e-05 0)
(2.80967e-06 -3.87426e-05 0)
(3.13742e-05 6.68564e-06 0)
(4.55792e-05 4.4413e-05 0)
(4.7737e-05 7.23502e-05 0)
(4.0614e-05 8.80634e-05 0)
(2.74841e-05 8.87832e-05 0)
(1.28314e-05 7.14297e-05 0)
(2.90029e-06 3.2449e-05 0)
(2.22933e-06 -3.78284e-05 0)
(8.63867e-06 -7.89726e-05 0)
(1.57604e-05 -9.20818e-05 0)
(1.78662e-05 -8.22319e-05 0)
(1.0635e-05 -5.35712e-05 0)
(-9.19536e-06 -9.70548e-06 0)
(-4.43494e-05 4.6252e-05 0)
(-9.70801e-05 0.000111647 0)
(-0.000169199 0.000184234 0)
(-0.000262124 0.00026212 0)
(-0.000376928 0.000343721 0)
(-0.000514372 0.000427713 0)
(-0.000674947 0.000512992 0)
(-0.000858907 0.000598638 0)
(-0.00106629 0.000683886 0)
(-0.00129698 0.0007681 0)
(-0.00155066 0.00085075 0)
(-0.00182692 0.000931397 0)
(-0.00212522 0.00100968 0)
(-0.00244493 0.00108528 0)
(-0.00278531 0.00115797 0)
(-0.00314559 0.00122754 0)
(-0.00352491 0.00129383 0)
(-0.00392237 0.00135669 0)
(-0.00433704 0.00141602 0)
(-0.00476794 0.00147176 0)
(-0.00521406 0.00152382 0)
(-0.0056744 0.00157217 0)
(-0.00614791 0.00161679 0)
(-0.00663354 0.00165765 0)
(-0.00713025 0.00169476 0)
(-0.00763697 0.00172811 0)
(-0.00815263 0.00175774 0)
(-0.00867619 0.00178365 0)
(-0.00920659 0.00180589 0)
(-0.00974278 0.00182448 0)
(-0.0102837 0.00183947 0)
(-0.0108284 0.00185091 0)
(-0.0113757 0.00185884 0)
(-0.0119248 0.00186333 0)
(-0.0124746 0.00186442 0)
(-0.0130241 0.00186218 0)
(-0.0135724 0.00185667 0)
(-0.0141185 0.00184796 0)
(-0.0146615 0.00183611 0)
(-0.0152005 0.00182119 0)
(-0.0157347 0.00180328 0)
(-0.0162631 0.00178244 0)
(-0.0167849 0.00175874 0)
(-0.0172992 0.00173227 0)
(-0.0178054 0.0017031 0)
(-0.0183026 0.0016713 0)
(-0.0187899 0.00163694 0)
(-0.0192668 0.00160012 0)
(-0.0197325 0.0015609 0)
(-0.0201862 0.00151936 0)
(-0.0206274 0.00147559 0)
(-0.0210553 0.00142967 0)
(-0.0214694 0.00138167 0)
(-0.021869 0.00133168 0)
(-0.0222536 0.00127977 0)
(-0.0226226 0.00122604 0)
(-0.0229755 0.00117056 0)
(-0.0233118 0.00111341 0)
(-0.023631 0.00105469 0)
(-0.0239327 0.000994477 0)
(-0.0242164 0.000932853 0)
(-0.0244817 0.000869905 0)
(-0.0247283 0.00080572 0)
(-0.0249558 0.000740386 0)
(-0.0251639 0.000673988 0)
(-0.0253522 0.000606617 0)
(-0.0255206 0.00053836 0)
(-0.0256687 0.000469308 0)
(-0.0257964 0.00039955 0)
(-0.0259034 0.000329178 0)
(-0.0259896 0.000258284 0)
(-0.0260548 0.00018696 0)
(-0.026099 0.000115299 0)
(-0.026122 4.33954e-05 0)
(-0.0261238 -2.86557e-05 0)
(-0.0261044 -0.000100759 0)
(-0.0260637 -0.000172818 0)
(-0.0260018 -0.000244736 0)
(-0.0259188 -0.000316414 0)
(-0.0258148 -0.000387755 0)