/*--------------------------------*- C++ -*----------------------------------*\
  =========                 |
  \\      /  F ield         | OpenFOAM: The Open Source CFD Toolbox
   \\    /   O peration     | Website:  https://openfoam.org
    \\  /    A nd           | Version:  7
     \\/     M anipulation  |
\*---------------------------------------------------------------------------*/
FoamFile
{
    version     2.0;
    format      ascii;
    class       volScalarField;
    location    "0.225";
    object      p;
}
// * * * * * * * * * * * * * * * * * * * * * * * * * * * * * * * * * * * * * //

dimensions      [0 2 -2 0 0 0 0];

internalField   nonuniform List<scalar> 
6400
(
1.40579e-06
1.46459e-05
-0.000491643
-0.00152405
-0.00296583
-0.00470679
-0.00664647
-0.00869553
-0.0107767
-0.0128247
-0.0147843
-0.0166095
-0.0182618
-0.0197095
-0.0209268
-0.021893
-0.022592
-0.0230115
-0.0231431
-0.0229815
-0.022524
-0.0217709
-0.0207245
-0.0193894
-0.0177721
-0.0158808
-0.0137253
-0.0113169
-0.00866837
-0.00579346
-0.00270719
0.000574399
0.00403432
0.00765472
0.011417
0.0153016
0.0192887
0.0233577
0.0274874
0.0316564
0.0358429
0.0400248
0.0441799
0.0482858
0.0523204
0.0562615
0.0600874
0.0637766
0.0673083
0.0706621
0.0738188
0.0767597
0.0794676
0.0819263
0.0841213
0.0860394
0.0876695
0.0890025
0.0900312
0.0907512
0.0911606
0.0912601
0.0910538
0.0905492
0.0897573
0.088693
0.0873757
0.0858296
0.084084
0.0821741
0.0801417
0.0780358
0.075914
0.0738432
0.071901
0.0701758
0.0687646
0.0677716
0.0673033
0.0673405
-8.6984e-06
4.52607e-06
-0.000448885
-0.00133174
-0.00254505
-0.0040095
-0.00564928
-0.00739196
-0.0091724
-0.0109334
-0.0126252
-0.0142053
-0.0156378
-0.0168923
-0.0179437
-0.0187717
-0.01936
-0.0196962
-0.0197712
-0.019579
-0.0191162
-0.018382
-0.0173779
-0.0161076
-0.0145763
-0.0127912
-0.0107609
-0.00849576
-0.00600715
-0.00330772
-0.000411291
0.0026673
0.0059123
0.00930711
0.0128343
0.0164759
0.020213
0.0240265
0.0278965
0.031803
0.0357256
0.0396434
0.0435359
0.047382
0.0511612
0.0548527
0.0584362
0.0618918
0.0652002
0.0683426
0.0713011
0.0740588
0.0765997
0.0789092
0.0809741
0.0827827
0.0843252
0.0855935
0.086582
0.0872869
0.0877073
0.087845
0.0877046
0.0872938
0.0866241
0.0857103
0.0845715
0.083231
0.081717
0.0800625
0.0783066
0.076494
0.0746763
0.0729119
0.0712661
0.0698103
0.0686176
0.0677628
0.0673393
0.0673775
0.00049846
0.000460236
6.56015e-06
-0.000808962
-0.00189907
-0.00320061
-0.00465228
-0.00619403
-0.00777037
-0.00933121
-0.0108323
-0.0122349
-0.0135059
-0.0146167
-0.0155436
-0.016267
-0.0167711
-0.0170434
-0.017075
-0.0168593
-0.0163928
-0.0156739
-0.0147036
-0.0134847
-0.0120219
-0.0103214
-0.00839112
-0.00624033
-0.00387957
-0.00132058
0.00142381
0.00433973
0.00741245
0.0106264
0.0139651
0.0174116
0.0209483
0.0245569
0.0282188
0.031915
0.0356262
0.0393329
0.0430154
0.046654
0.0502292
0.0537216
0.057112
0.0603818
0.0635127
0.0664872
0.0692886
0.0719012
0.07431
0.0765016
0.0784639
0.0801862
0.0816597
0.0828771
0.0838336
0.0845262
0.0849546
0.085121
0.0850303
0.0846904
0.0841126
0.0833115
0.0823053
0.0811163
0.0797711
0.0783006
0.0767406
0.0751318
0.0735202
0.0719568
0.0704974
0.0692013
0.0681277
0.0673369
0.0669142
0.0669111
0.00153195
0.00134661
0.000823
4.16636e-06
-0.00104338
-0.00226609
-0.00361218
-0.00503098
-0.00647492
-0.00790038
-0.00926827
-0.0105438
-0.0116967
-0.0127009
-0.0135343
-0.0141783
-0.014618
-0.0148414
-0.0148397
-0.0146065
-0.014138
-0.0134325
-0.0124906
-0.0113145
-0.00990839
-0.00827798
-0.00643049
-0.00437446
-0.00211971
0.000322773
0.00294095
0.00572179
0.0086514
0.011715
0.0148972
0.0181817
0.0215518
0.0249903
0.0284795
0.0320012
0.0355372
0.0390689
0.0425776
0.0460447
0.0494515
0.0527796
0.056011
0.0591278
0.0621128
0.0649496
0.0676223
0.070116
0.0724169
0.0745123
0.0763909
0.0780428
0.0794598
0.0806355
0.0815654
0.0822471
0.0826805
0.0828681
0.0828148
0.0825285
0.0820199
0.0813031
0.0803953
0.0793175
0.0780944
0.0767544
0.0753303
0.0738586
0.0723804
0.07094
0.0695856
0.0683677
0.0673365
0.0665437
0.0660574
0.0659212
0.0029809
0.00256912
0.00191762
0.00104579
-9.17762e-06
-0.00120257
-0.00249048
-0.00383068
-0.00518287
-0.00650964
-0.00777681
-0.00895366
-0.010013
-0.0109314
-0.0116885
-0.0122673
-0.0126538
-0.0128368
-0.0128079
-0.012561
-0.0120923
-0.0114001
-0.0104846
-0.00934791
-0.00799366
-0.00642714
-0.00465499
-0.00268517
-0.000526855
0.00180964
0.00431301
0.00697096
0.00977034
0.0126972
0.0157369
0.018874
0.0220927
0.0253766
0.0287088
0.0320722
0.0354492
0.0388222
0.0421735
0.0454852
0.0487397
0.0519195
0.0550072
0.0579861
0.0608398
0.0635526
0.0661096
0.0684966
0.0707007
0.0727098
0.0745132
0.0761019
0.0774681
0.0786059
0.0795112
0.0801819
0.0806182
0.0808224
0.0807995
0.0805568
0.0801046
0.0794562
0.0786277
0.0776384
0.076511
0.0752716
0.0739494
0.0725772
0.0711909
0.069829
0.0685327
0.0673444
0.0663071
0.0654647
0.0648583
0.06451
0.00474309
0.0040546
0.00323216
0.00226717
0.00116343
-4.21713e-05
-0.00131233
-0.00261239
-0.00390878
-0.00516974
-0.00636577
-0.00747014
-0.00845903
-0.00931127
-0.0100087
-0.010536
-0.0108804
-0.0110315
-0.0109816
-0.0107249
-0.010258
-0.00957905
-0.00868837
-0.00758776
-0.00628064
-0.00477189
-0.00306771
-0.00117557
0.000895899
0.00313699
0.00553701
0.00808435
0.0107665
0.0135704
0.0164819
0.0194865
0.022569
0.025714
0.0289053
0.0321265
0.035361
0.0385918
0.0418021
0.044975
0.0480934
0.0511407
0.0541004
0.0569565
0.0596934
0.0622961
0.0647504
0.0670428
0.069161
0.0710936
0.0728305
0.0743631
0.075684
0.0767877
0.0776703
0.07833
0.0787669
0.0789832
0.0789835
0.0787749
0.078367
0.0777717
0.0770042
0.0760822
0.0750261
0.0738594
0.0726083
0.0713016
0.0699705
0.0686484
0.0673697
0.0661699
0.065086
0.0641545
0.0633852
0.062774
0.00672789
0.00573451
0.00471141
0.00362174
0.00243529
0.00118253
-0.000104673
-0.00139842
-0.00267111
-0.00389605
-0.00504825
-0.0061047
-0.00704464
-0.0078496
-0.00850353
-0.00899272
-0.00930573
-0.00943335
-0.00936848
-0.00910601
-0.00864275
-0.00797721
-0.00710964
-0.00604182
-0.00477702
-0.00331981
-0.00167606
0.000147136
0.0021416
0.00429815
0.00660665
0.00905607
0.0116345
0.0143295
0.0171276
0.020015
0.0229773
0.0259996
0.0290665
0.0321624
0.0352712
0.038377
0.0414634
0.0445142
0.0475132
0.0504445
0.0532922
0.0560411
0.058676
0.0611828
0.0635477
0.0657579
0.0678015
0.0696677
0.0713468
0.0728304
0.0741117
0.0751852
0.0760473
0.076696
0.0771313
0.0773554
0.0773723
0.0771885
0.0768128
0.0762563
0.0755324
0.0746574
0.0736495
0.0725298
0.0713213
0.0700493
0.0687406
0.0674238
0.0661278
0.0648816
0.0637171
0.0626651
0.061703
0.0607996
0.00885607
0.00754441
0.00630163
0.00506413
0.00376896
0.0024414
0.00110885
-0.000206538
-0.00148244
-0.00269684
-0.00382872
-0.00485864
-0.00576874
-0.00654318
-0.00716798
-0.00763116
-0.00792267
-0.00803443
-0.00796023
-0.00769564
-0.00723787
-0.00658577
-0.00573976
-0.00470165
-0.00347462
-0.00206307
-0.000472657
0.00128984
0.00321663
0.00529897
0.00752717
0.00989069
0.0123782
0.0149778
0.0176766
0.0204615
0.0233186
0.0262337
0.029192
0.0321785
0.0351779
0.0381747
0.0411534
0.0440984
0.046994
0.0498248
0.0525758
0.0552321
0.0577793
0.0602035
0.0624918
0.0646315
0.0666113
0.0684207
0.0700502
0.0714919
0.0727389
0.0737861
0.0746296
0.0752674
0.0756995
0.0759274
0.075955
0.0757878
0.0754337
0.0749028
0.0742072
0.0733613
0.0723815
0.0712862
0.0700957
0.0688318
0.0675178
0.0661778
0.0648356
0.0635149
0.0622437
0.0610478
0.0598732
0.0586631
0.0110607
0.0094269
0.00795335
0.00655184
0.00512857
0.00370472
0.00230431
0.000944566
-0.000356904
-0.00158213
-0.00271376
-0.00373551
-0.00463242
-0.00539103
-0.0059994
-0.00644727
-0.00672606
-0.00682886
-0.00675037
-0.00648687
-0.00603616
-0.00539749
-0.00457147
-0.00356008
-0.00236647
-0.000995018
0.000548801
0.00225846
0.00412647
0.00614441
0.00830298
0.0105921
0.0130009
0.0155179
0.0181309
0.0208272
0.0235935
0.0264161
0.0292808
0.0321733
0.0350786
0.0379821
0.0408685
0.0437229
0.0465303
0.0492756
0.0519444
0.0545222
0.0569951
0.0593498
0.0615734
0.0636539
0.0655801
0.0673418
0.0689299
0.0703363
0.0715545
0.072579
0.0734062
0.0740337
0.0744611
0.0746898
0.0747227
0.0745648
0.0742232
0.0737065
0.0730256
0.0721933
0.0712239
0.0701336
0.0689401
0.0676621
0.0663195
0.0649326
0.0635211
0.0621039
0.060706
0.0593493
0.0579505
0.0564288
0.013286
0.0113319
0.00962215
0.00804584
0.0064803
0.00494376
0.00345773
0.00203523
0.000689797
-0.000564092
-0.00171241
-0.00274174
-0.00363979
-0.00439532
-0.00499836
-0.00544034
-0.00571413
-0.00581398
-0.00573558
-0.00547596
-0.00503354
-0.00440803
-0.00360038
-0.00261272
-0.0014483
-0.000111496
0.00139228
0.0030567
0.00487447
0.00683746
0.00893672
0.0111625
0.0135043
0.0159512
0.0184913
0.0211124
0.0238018
0.0265461
0.0293318
0.0321448
0.034971
0.0377959
0.040605
0.0433837
0.0461174
0.0487917
0.0513922
0.0539052
0.0563169
0.0586144
0.0607851
0.0628173
0.0646999
0.066423
0.0679774
0.0693552
0.0705498
0.0715557
0.0723689
0.0729869
0.073409
0.0736358
0.0736698
0.0735151
0.0731778
0.0726655
0.0719877
0.0711554
0.0701813
0.0690795
0.067865
0.0665541
0.0651637
0.0637106
0.0622111
0.0606802
0.0591406
0.0576117
0.0559823
0.0541499
0.015485
0.013216
0.0112685
0.00951054
0.00779273
0.00613122
0.00454571
0.00304569
0.00164136
0.00034405
-0.000835081
-0.00188532
-0.00279669
-0.00356004
-0.00416728
-0.0046115
-0.00488692
-0.00498898
-0.00491433
-0.00466083
-0.00422755
-0.00361469
-0.00282357
-0.00185656
-0.000717094
0.000590404
0.00206057
0.00368714
0.005463
0.00738023
0.00943014
0.0116033
0.0138895
0.0162782
0.018758
0.0213169
0.0239427
0.0266225
0.0293431
0.032091
0.0348524
0.0376133
0.0403595
0.0430768
0.045751
0.048368
0.050914
0.0533753
0.0557385
0.0579909
0.0601201
0.0621146
0.0639635
0.0656567
0.0671853
0.0685412
0.0697177
0.070709
0.0715111
0.072121
0.0725375
0.0727607
0.0727923
0.0726358
0.0722961
0.0717798
0.071095
0.0702513
0.0692596
0.0681321
0.0668817
0.0655222
0.064068
0.0625332
0.0609308
0.0592729
0.0575807
0.0558718
0.0540094
0.0518706
0.0176186
0.0150416
0.0128571
0.0109137
0.00903674
0.00724121
0.0055456
0.00395652
0.00248129
0.00112851
-9.31338e-05
-0.00117534
-0.00211021
-0.00289057
-0.0035101
-0.00396339
-0.00424599
-0.0043545
-0.00428655
-0.00404084
-0.00361709
-0.00301602
-0.00223937
-0.00128981
-0.000171008
0.00111253
0.00255541
0.00415142
0.00589353
0.00777397
0.00978424
0.0119151
0.0141569
0.016499
0.0189306
0.02144
0.0240152
0.0266438
0.029313
0.0320096
0.0347201
0.0374309
0.0401282
0.042798
0.0454266
0.048
0.0505046
0.052927
0.0552542
0.0574733
0.0595723
0.0615396
0.0633644
0.0650366
0.0665472
0.067888
0.069052
0.0700333
0.0708274
0.071431
0.0718423
0.0720609
0.0720877
0.0719253
0.0715777
0.0710505
0.0703504
0.0694857
0.0684656
0.0673006
0.0660017
0.0645808
0.0630498
0.0614207
0.0597039
0.0579088
0.0560561
0.0541623
0.0520667
0.0496274
0.0196534
0.0167759
0.0143568
0.012226
0.0101855
0.00824944
0.00643575
0.00474866
0.00319298
0.00177506
0.000501367
-0.000621836
-0.00158861
-0.00239358
-0.00303206
-0.00350003
-0.00379432
-0.00391265
-0.00385362
-0.00361675
-0.00320241
-0.0026119
-0.00184738
-0.000911907
0.000190654
0.00145563
0.00287755
0.00445019
0.00616658
0.00801903
0.00999918
0.0120981
0.0143061
0.0166131
0.0190083
0.0214804
0.0240177
0.0266082
0.0292392
0.0318979
0.0345712
0.0372456
0.0399076
0.0425436
0.0451399
0.0476829
0.0501592
0.0525554
0.0548586
0.0570562
0.0591361
0.0610866
0.062897
0.0645571
0.0660576
0.0673903
0.0685477
0.0695238
0.0703136
0.0709133
0.0713205
0.0715342
0.0715546
0.0713835
0.0710238
0.0704801
0.069758
0.0688643
0.067807
0.0665948
0.0652372
0.0637442
0.0621259
0.0603924
0.0585519
0.0566121
0.0545933
0.0525117
0.050184
0.0474507
0.0215608
0.0183904
0.0157397
0.0134211
0.0112143
0.00913312
0.00719545
0.00540346
0.00375989
0.00226918
0.000935858
-0.000235615
-0.0012411
-0.00207684
-0.00273959
-0.00322667
-0.00353615
-0.00366681
-0.00361818
-0.00339057
-0.00298504
-0.00240344
-0.00164841
-0.000723398
0.000367501
0.00161941
0.00302674
0.0045832
0.00628182
0.00811497
0.0100744
0.0121513
0.0143362
0.0166192
0.0189896
0.0214365
0.0239483
0.0265133
0.0291192
0.0317532
0.0344024
0.0370538
0.039694
0.0423095
0.0448868
0.0474125
0.0498732
0.0522557
0.0545471
0.0567347
0.0588064
0.0607507
0.0625564
0.0642134
0.065712
0.0670437
0.0682009
0.069177
0.0699666
0.0705654
0.0709703
0.0711798
0.0711932
0.0710114
0.0706366
0.0700722
0.0693227
0.0683937
0.0672919
0.0660247
0.0646001
0.0630265
0.0613125
0.0594665
0.0574954
0.0554051
0.0532161
0.050945
0.0483871
0.0453661
0.0233158
0.0198596
0.0169806
0.0144746
0.0121
0.00987077
0.00780484
0.00590279
0.00416568
0.00259623
0.00119736
-2.81341e-05
-0.00107769
-0.00194899
-0.00264012
-0.0031497
-0.00347692
-0.00362157
-0.00358408
-0.00336552
-0.00296764
-0.00239289
-0.00164439
-0.000725906
0.000358118
0.00160259
0.00300177
0.00454927
0.00623807
0.00806057
0.0100086
0.0120734
0.0142457
0.0165155
0.0188726
0.0213061
0.0238047
0.0263567
0.0289501
0.0315723
0.0342107
0.0368522
0.0394837
0.0420919
0.0446633
0.0471845
0.0496423
0.0520234
0.054315
0.0565042
0.0585789
0.0605274
0.0623383
0.0640013
0.0655064
0.0668447
0.0680083
0.0689902
0.0697843
0.0703858
0.070791
0.0709976
0.0710043
0.0708111
0.0704193
0.0698312
0.0690503
0.0680812
0.0669294
0.0656009
0.0641026
0.0624416
0.0606251
0.0586605
0.0565531
0.0543079
0.051946
0.0494845
0.0466983
0.0433952
0.0248964
0.0211607
0.0180568
0.0153644
0.0128213
0.0104421
0.00824488
0.00622903
0.00439415
0.00274148
0.00127255
-1.13726e-05
-0.00110905
-0.00201948
-0.002742
-0.00327644
-0.00362304
-0.00378253
-0.00375619
-0.00354587
-0.00315398
-0.00258355
-0.00183818
-0.000922027
0.000160142
0.00140299
0.00280058
0.0043464
0.00603338
0.00785389
0.00979977
0.0118623
0.0140323
0.0162998
0.0186549
0.0210866
0.023584
0.0261354
0.0287289
0.0313521
0.0339925
0.0366372
0.039273
0.0418868
0.0444652
0.0469949
0.0494623
0.0518544
0.0541581
0.0563607
0.0584496
0.0604128
0.0622391
0.0639174
0.0654377
0.0667907
0.0679678
0.0689616
0.0697654
0.070374
0.0707828
0.0709889
0.0709901
0.0707856
0.0703759
0.0697623
0.0689474
0.0679347
0.0667286
0.0653341
0.0637569
0.0620031
0.060079
0.0579907
0.0557428
0.0533394
0.0508024
0.0481498
0.0451372
0.0415567
0.0262826
0.0222731
0.0189474
0.0160697
0.0133581
0.0108277
0.00849726
0.006365
0.00442928
0.00269014
0.00114779
-0.000197711
-0.00134638
-0.00229842
-0.00305438
-0.00361511
-0.00398185
-0.00415624
-0.00414037
-0.00393686
-0.00354878
-0.00297969
-0.00223368
-0.00131531
-0.000229708
0.00101753
0.00242026
0.00397181
0.00566502
0.00749221
0.00944519
0.0115152
0.0136932
0.0159693
0.0183335
0.0207751
0.0232831
0.025846
0.028452
0.0310889
0.0337441
0.0364048
0.039058
0.0416904
0.0442887
0.0468395
0.0493292
0.0517447
0.0540727
0.0563002
0.0584146
0.0604036
0.0622554
0.0639589
0.0655035
0.0668794
0.0680776
0.0690901
0.0699097
0.0705302
0.0709468
0.0711554
0.0711532
0.0709388
0.0705114
0.0698716
0.0690212
0.0679625
0.0666991
0.0652351
0.0635752
0.0617246
0.0596886
0.0574729
0.0550811
0.0525168
0.0498031
0.046959
0.0437213
0.0398668
0.0274564
0.0231776
0.019633
0.0165711
0.0136913
0.0110092
0.00854426
0.00629386
0.0042552
0.00242733
0.000809304
-0.000599899
-0.00180142
-0.00279662
-0.00358709
-0.00417466
-0.00456149
-0.0047501
-0.00474339
-0.00454467
-0.00415764
-0.00358643
-0.00283561
-0.00191016
-0.000815538
0.000442349
0.00185712
0.00342196
0.00512957
0.00697219
0.00894155
0.0110289
0.0132251
0.0155205
0.0179049
0.0203679
0.0228984
0.025485
0.0281159
0.030779
0.0334617
0.0361513
0.0388347
0.0414987
0.0441297
0.0467144
0.0492391
0.0516904
0.0540549
0.0563193
0.0584707
0.0604965
0.0623847
0.0641234
0.0657018
0.0671095
0.068337
0.0693755
0.0702173
0.0708556
0.0712847
0.0714998
0.0714974
0.071275
0.0708312
0.0701658
0.0692793
0.0681736
0.0668511
0.0653152
0.0635698
0.0616193
0.0594684
0.0571222
0.0545838
0.0518565
0.0489646
0.0459285
0.0424663
0.0383402
0.0284009
0.0238565
0.0200951
0.0168503
0.0138027
0.0109687
0.00836859
0.00599896
0.00385609
0.00193808
0.000243048
-0.00123105
-0.00248642
-0.00352544
-0.00435065
-0.00496478
-0.0053709
-0.00557236
-0.00557284
-0.00537629
-0.00498705
-0.00440979
-0.00364956
-0.00271179
-0.00160227
-0.000327226
0.00110673
0.00269259
0.00442291
0.00628979
0.00828488
0.0103994
0.0126242
0.0149495
0.0173654
0.0198611
0.0224259
0.0250483
0.0277165
0.0304183
0.0331413
0.0358726
0.0385991
0.0413075
0.0439843
0.0466157
0.0491882
0.0516879
0.0541013
0.0564147
0.058615
0.0606891
0.0626245
0.064409
0.0660312
0.0674801
0.0687455
0.0698181
0.0706894
0.071352
0.0717992
0.0720257
0.072027
0.0717998
0.0713418
0.070652
0.0697302
0.0685773
0.067195
0.0655859
0.0637532
0.0617006
0.0594326
0.0569536
0.0542664
0.0513741
0.0483025
0.0450735
0.041387
0.0369901
0.0291
0.0242926
0.0203162
0.0168895
0.0136746
0.0106887
0.00795324
0.00546386
0.00321615
0.00120736
-0.000565245
-0.00210468
-0.00341411
-0.00449678
-0.00535612
-0.00599581
-0.00641974
-0.00663204
-0.00663708
-0.00643951
-0.00604428
-0.00545656
-0.00468191
-0.00372619
-0.00259558
-0.00129658
0.000163949
0.00177877
0.00354025
0.00544034
0.00747062
0.00962224
0.0118859
0.014252
0.0167104
0.0192505
0.0218614
0.0245316
0.0272493
0.0300025
0.0327784
0.0355643
0.0383469
0.0411128
0.0438483
0.0465396
0.0491727
0.0517337
0.0542085
0.0565835
0.0588447
0.060979
0.062973
0.0648143
0.0664907
0.0679907
0.0693034
0.0704188
0.0713277
0.0720218
0.0724937
0.0727372
0.072747
0.072519
0.0720501
0.0713384
0.0703828
0.0691836
0.0677416
0.0660588
0.0641379
0.061982
0.0595952
0.0569815
0.0541437
0.0510847
0.047832
0.0444089
0.0404972
0.0358293
0.0295381
0.0244695
0.0202793
0.0166715
0.0132898
0.0101523
0.0072814
0.00467224
0.00231958
0.000219973
-0.00163015
-0.00323467
-0.00459758
-0.00572299
-0.00661521
-0.00727876
-0.00771832
-0.00793877
-0.00794519
-0.00774285
-0.00733727
-0.00673423
-0.00593975
-0.0049601
-0.00380182
-0.00247174
-0.000977003
0.000674924
0.0024762
0.00441863
0.00649369
0.00869243
0.0110055
0.0134232
0.0159353
0.0185313
0.0212
0.0239302
0.0267099
0.0295269
0.0323686
0.035222
0.0380737
0.0409102
0.0437177
0.0464819
0.0491888
0.0518241
0.0543734
0.0568226
0.0591573
0.0613639
0.0634286
0.0653381
0.0670798
0.0686415
0.0700115
0.0711791
0.0721343
0.0728679
0.0733719
0.073639
0.0736631
0.0734393
0.0729637
0.0722333
0.0712466
0.0700028
0.0685022
0.0667463
0.064737
0.0624771
0.0599703
0.0572206
0.0542306
0.0510032
0.0475677
0.0439488
0.0398103
0.0348699
0.0296999
0.0243711
0.0199678
0.0161793
0.0126311
0.00934237
0.00633633
0.00360766
0.00115039
-0.00103957
-0.00296657
-0.00463527
-0.00605044
-0.00721703
-0.0081402
-0.00882526
-0.00927765
-0.00950295
-0.00950693
-0.00929551
-0.00887478
-0.00825108
-0.00743088
-0.0064209
-0.00522803
-0.00385945
-0.0023226
-0.000625184
0.00122475
0.00321885
0.00534843
0.00760445
0.00997746
0.0124576
0.0150348
0.0176982
0.0204368
0.0232391
0.0260932
0.0289868
0.0319071
0.034841
0.037775
0.0406954
0.0435881
0.0464388
0.0492328
0.0519557
0.0545928
0.0571292
0.0595504
0.061842
0.0639897
0.0659796
0.0677983
0.0694328
0.0708709
0.0721009
0.073112
0.0738941
0.0744383
0.0747364
0.0747816
0.0745679
0.0740906
0.0733459
0.0723315
0.0710459
0.0694887
0.0676608
0.0655636
0.0631997
0.0605724
0.0576856
0.0545419
0.0511445
0.0475241
0.0437074
0.0393397
0.0341237
0.0295703
0.0239813
0.019365
0.015396
0.0116817
0.00824195
0.00510121
0.00225356
-0.000307605
-0.00258702
-0.00458972
-0.0063211
-0.00778671
-0.00899233
-0.00994391
-0.0106475
-0.0111093
-0.0113355
-0.0113327
-0.0111073
-0.0106661
-0.0100159
-0.0091637
-0.00811657
-0.00688183
-0.00546698
-0.0038798
-0.00212825
-0.000220572
0.00183471
0.00402874
0.00635235
0.00879598
0.0113497
0.0140032
0.0167458
0.0195662
0.0224529
0.025394
0.0283769
0.0313888
0.0344164
0.0374461
0.0404638
0.0434553
0.0464059
0.0493009
0.0521251
0.0548634
0.0575007
0.0600217
0.0624115
0.0646551
0.0667381
0.0686461
0.0703655
0.0718832
0.0731865
0.0742639
0.0751043
0.0756978
0.0760355
0.0761094
0.0759127
0.0754397
0.074686
0.0736483
0.0723244
0.0707134
0.0688154
0.0666316
0.0641641
0.0614161
0.0583915
0.0550929
0.0515235
0.0477161
0.0436989
0.0390988
0.0336032
0.0291339
0.0232839
0.0184544
0.0143048
0.0104243
0.00683394
0.00355901
0.000593117
-0.00207091
-0.00443846
-0.0065152
-0.00830725
-0.00982096
-0.0110629
-0.0120397
-0.0127582
-0.0132254
-0.0134481
-0.0134335
-0.0131888
-0.0127213
-0.0120383
-0.0111472
-0.0100557
-0.0087714
-0.00730222
-0.00565619
-0.00384156
-0.00186677
0.000259438
0.00252805
0.00492973
0.00745481
0.0100933
0.0128346
0.0156681
0.0185825
0.0215661
0.0246067
0.0276918
0.0308084
0.033943
0.0370819
0.0402107
0.0433148
0.0463793
0.0493891
0.0523286
0.0551822
0.0579343
0.060569
0.0630708
0.065424
0.0676133
0.0696237
0.0714407
0.0730501
0.0744387
0.0755937
0.0765031
0.0771561
0.0775426
0.0776539
0.077482
0.0770205
0.0762639
0.0752082
0.0738505
0.0721892
0.0702239
0.0679553
0.0653852
0.0625167
0.0593538
0.055899
0.0521558
0.0481587
0.043938
0.0391014
0.0333208
0.028375
0.0222627
0.0172189
0.0128884
0.00884171
0.00510093
0.00169238
-0.00139079
-0.00415636
-0.00661034
-0.00875904
-0.0106093
-0.0121683
-0.0134432
-0.0144415
-0.0151708
-0.0156386
-0.0158528
-0.015821
-0.015551
-0.0150508
-0.0143281
-0.013391
-0.0122474
-0.0109055
-0.00937353
-0.00765979
-0.00577281
-0.00372129
-0.00151417
0.000839341
0.00332978
0.00594732
0.00868181
0.0115227
0.0144591
0.0174797
0.0205726
0.0237256
0.0269259
0.0301605
0.0334157
0.0366774
0.0399311
0.0431619
0.0463546
0.0494935
0.0525627
0.0555461
0.0584274
0.0611903
0.0638184
0.0662953
0.068605
0.0707317
0.0726597
0.0743741
0.0758606
0.0771054
0.0780956
0.0788191
0.0792649
0.0794232
0.0792851
0.078843
0.0780907
0.0770233
0.0756372
0.0739299
0.0719006
0.0695497
0.0668786
0.0638903
0.0605887
0.0569764
0.0530573
0.0488677
0.0444398
0.0393618
0.0332898
0.0272776
0.0209008
0.0156415
0.0111293
0.00691615
0.00302514
-0.000516371
-0.00371567
-0.00658123
-0.00911961
-0.0113378
-0.0132434
-0.0148442
-0.0161483
-0.0171638
-0.017899
-0.0183624
-0.0185623
-0.0185072
-0.0182055
-0.0176656
-0.016896
-0.0159051
-0.0147013
-0.0132934
-0.0116897
-0.00989903
-0.00793013
-0.00579197
-0.00349369
-0.0010447
0.00154538
0.00426658
0.00710862
0.0100609
0.0131123
0.0162514
0.0194663
0.0227446
0.0260734
0.0294394
0.0328288
0.0362273
0.0396201
0.042992
0.0463273
0.04961
0.0528237
0.0559518
0.0589774
0.0618834
0.0646528
0.0672684
0.0697133
0.0719707
0.0740241
0.0758576
0.0774557
0.0788036
0.0798871
0.0806933
0.0812099
0.0814259
0.0813315
0.080918
0.0801782
0.0791063
0.0776979
0.0759499
0.0738609
0.0714307
0.0686606
0.0655534
0.0621131
0.0583422
0.054245
0.0498597
0.0452205
0.0398955
0.0335243
0.0258251
0.019181
0.0137043
0.00900935
0.00462937
0.000588277
-0.00308546
-0.00639965
-0.00936339
-0.0119838
-0.0142687
-0.0162262
-0.0178649
-0.0191937
-0.0202216
-0.0209575
-0.0214106
-0.0215901
-0.021505
-0.0211644
-0.0205774
-0.0197529
-0.0187
-0.0174276
-0.0159446
-0.01426
-0.0123827
-0.010322
-0.00808698
-0.00568702
-0.00313172
-0.000430891
0.00240537
0.00536667
0.00844223
0.0116209
0.0148911
0.0182408
0.0216575
0.0251282
0.0286393
0.0321769
0.0357263
0.0392726
0.0428002
0.046293
0.0497346
0.0531081
0.0563963
0.0595816
0.0626463
0.0655726
0.0683425
0.0709381
0.0733417
0.0755359
0.0775034
0.0792277
0.0806929
0.0818837
0.0827857
0.0833857
0.0836713
0.0836316
0.0832569
0.0825388
0.0814707
0.0800472
0.0782646
0.0761207
0.0736151
0.0707486
0.0675238
0.0639448
0.0600143
0.0557366
0.0511522
0.046297
0.0407185
0.0340395
0.0240001
0.0170853
0.0113889
0.00650999
0.00196255
-0.00222853
-0.00603373
-0.00946143
-0.0125213
-0.0152211
-0.0175694
-0.0195749
-0.0212472
-0.0225958
-0.0236305
-0.0243611
-0.0247976
-0.0249497
-0.0248274
-0.0244402
-0.023798
-0.0229104
-0.0217867
-0.0204365
-0.018869
-0.0170938
-0.01512
-0.0129572
-0.0106147
-0.00810227
-0.00542958
-0.00260664
0.000356315
0.00344876
0.00665981
0.00997818
0.0133922
0.0168897
0.020458
0.0240841
0.0277541
0.031454
0.0351688
0.0388832
0.0425815
0.046247
0.049863
0.0534119
0.0568761
0.0602372
0.0634769
0.0665764
0.069517
0.0722797
0.0748458
0.0771968
0.0793144
0.0811807
0.0827786
0.0840915
0.0851038
0.0858008
0.0861691
0.0861964
0.0858718
0.0851858
0.0841308
0.0827004
0.0808901
0.0786972
0.0761206
0.0731607
0.0698202
0.0661028
0.0620116
0.0575511
0.0527637
0.0476875
0.0418484
0.0348518
0.0217847
0.0145949
0.00867624
0.00361183
-0.00110384
-0.00544491
-0.00938079
-0.0129204
-0.0160741
-0.0188504
-0.0212583
-0.0233076
-0.0250085
-0.0263713
-0.0274068
-0.0281256
-0.0285383
-0.0286556
-0.0284881
-0.0280461
-0.0273401
-0.0263802
-0.0251765
-0.0237388
-0.0220771
-0.020201
-0.0181203
-0.0158447
-0.0133839
-0.0107478
-0.00794633
-0.00498966
-0.00188815
0.00134755
0.00470643
0.0081771
0.0117478
0.0154062
0.0191396
0.0229348
0.0267778
0.0306542
0.034549
0.0384466
0.0423308
0.0461846
0.0499908
0.0537314
0.0573879
0.0609415
0.064373
0.0676628
0.0707912
0.0737383
0.0764842
0.0790092
0.0812939
0.083319
0.0850661
0.0865172
0.0876554
0.0884645
0.0889298
0.0890376
0.0887757
0.0881334
0.0871019
0.0856739
0.083844
0.0816087
0.0789662
0.0759167
0.0724625
0.0686076
0.0643548
0.0597088
0.0547145
0.0494116
0.043304
0.0359789
0.0191597
0.0116904
0.00554635
0.000294602
-0.00459024
-0.00908135
-0.0131471
-0.0167969
-0.0200419
-0.0228912
-0.0253547
-0.0274428
-0.0291668
-0.0305379
-0.0315675
-0.0322671
-0.0326483
-0.0327226
-0.0325013
-0.0319956
-0.0312164
-0.0301746
-0.0288809
-0.0273456
-0.0255791
-0.0235915
-0.021393
-0.0189936
-0.0164032
-0.013632
-0.0106901
-0.00758779
-0.00433563
-0.000944378
0.00257486
0.0062106
0.00995099
0.0137837
0.0176958
0.0216739
0.0257041
0.0297717
0.0338614
0.0379573
0.042043
0.046101
0.0501137
0.0540625
0.0579284
0.0616918
0.0653326
0.0688305
0.0721646
0.0753142
0.0782581
0.0809754
0.0834453
0.0856472
0.0875613
0.089168
0.090449
0.0913866
0.0919646
0.0921677
0.0919823
0.0913967
0.0904004
0.0889852
0.0871447
0.0848744
0.082172
0.0790374
0.0754723
0.0714808
0.0670656
0.0622317
0.057026
0.0514906
0.0451059
0.0374404
0.0161055
0.00835135
0.00197828
-0.00346292
-0.00851803
-0.0131593
-0.0173539
-0.021112
-0.0244454
-0.027364
-0.0298784
-0.0320001
-0.0337411
-0.0351135
-0.0361298
-0.0368024
-0.0371437
-0.037166
-0.0368816
-0.0363023
-0.03544
-0.034306
-0.0329117
-0.031268
-0.0293858
-0.0272755
-0.0249478
-0.022413
-0.0196814
-0.0167632
-0.0136689
-0.0104088
-0.00699367
-0.00343435
0.000257962
0.00407174
0.00799504
0.0120154
0.01612
0.0202952
0.0245269
0.0288003
0.0331
0.0374098
0.0417128
0.0459914
0.0502272
0.0544014
0.0584941
0.062485
0.0663534
0.0700779
0.0736367
0.0770078
0.0801689
0.0830978
0.0857722
0.0881702
0.0902702
0.0920514
0.0934935
0.0945774
0.095285
0.0955998
0.0955064
0.0949915
0.0940435
0.0926527
0.0908118
0.0885152
0.0857599
0.0825452
0.0788725
0.0747457
0.0701675
0.0651431
0.0597217
0.0539473
0.0472762
0.0392574
0.0126009
0.00455602
-0.00205005
-0.00768306
-0.0129097
-0.0177011
-0.0220236
-0.0258878
-0.0293065
-0.0322902
-0.0348504
-0.0369997
-0.0387509
-0.0401173
-0.041112
-0.0417488
-0.0420408
-0.0420015
-0.0416438
-0.0409805
-0.0400242
-0.038787
-0.0372808
-0.0355173
-0.0335076
-0.031263
-0.0287943
-0.0261121
-0.0232271
-0.0201498
-0.0168907
-0.0134604
-0.00986971
-0.00612958
-0.00225126
0.00175368
0.00587325
0.010095
0.0144059
0.0187923
0.0232401
0.0277343
0.0322593
0.0367986
0.0413351
0.0458508
0.0503269
0.0547439
0.0590814
0.0633184
0.0674333
0.0714037
0.0752068
0.0788194
0.0822179
0.0853788
0.0882783
0.0908929
0.0931993
0.0951751
0.0967982
0.0980476
0.0989037
0.0993479
0.0993633
0.098935
0.0980497
0.0966964
0.0948664
0.0925532
0.089753
0.0864641
0.0826878
0.0784276
0.0736861
0.0684686
0.0628267
0.0568066
0.0498392
0.0414531
0.00862392
0.00028163
-0.00656185
-0.0123893
-0.0177888
-0.0227305
-0.0271797
-0.0311477
-0.034648
-0.0376922
-0.0402927
-0.0424629
-0.0442168
-0.0455686
-0.0465329
-0.0471242
-0.0473568
-0.0472452
-0.0468032
-0.0460446
-0.0449826
-0.0436303
-0.0420002
-0.0401046
-0.0379553
-0.035564
-0.0329418
-0.0300998
-0.0270489
-0.0237998
-0.0203632
-0.01675
-0.0129709
-0.009037
-0.00495956
-0.000750173
0.00357916
0.00801595
0.0125472
0.0171592
0.0218378
0.0265678
0.0313335
0.0361183
0.0409048
0.0456745
0.0504083
0.0550861
0.0596869
0.0641891
0.06857
0.0728064
0.0768743
0.0807494
0.0844068
0.0878213
0.0909676
0.0938207
0.0963555
0.0985475
0.100373
0.101809
0.102834
0.103427
0.10357
0.103245
0.102439
0.101137
0.0993311
0.0970124
0.0941762
0.0908202
0.0869449
0.0825536
0.0776488
0.0722359
0.0663686
0.0600956
0.0528212
0.0440529
0.00415107
-0.00449589
-0.0115817
-0.0176065
-0.0231804
-0.0282725
-0.0328471
-0.0369162
-0.0404942
-0.0435936
-0.0462279
-0.0484116
-0.0501599
-0.0514881
-0.0524119
-0.0529471
-0.0531093
-0.0529136
-0.0523753
-0.0515089
-0.0503288
-0.0488486
-0.0470817
-0.0450411
-0.0427392
-0.0401881
-0.0373994
-0.0343845
-0.0311547
-0.0277208
-0.0240938
-0.0202846
-0.016304
-0.0121631
-0.00787328
-0.00344601
0.0011067
0.00577239
0.0105381
0.0153901
0.0203142
0.0252953
0.0303174
0.0353637
0.0404167
0.0454577
0.0504669
0.055424
0.0603072
0.0650941
0.0697613
0.0742845
0.0786388
0.0827983
0.0867369
0.0904279
0.0938443
0.0969591
0.0997456
0.102177
0.104228
0.105873
0.107089
0.107852
0.108143
0.107941
0.107231
0.105998
0.10423
0.101918
0.0990565
0.0956412
0.0916725
0.0871532
0.0820855
0.0764748
0.0703773
0.0638438
0.0562511
0.0470846
-0.000842321
-0.00980199
-0.0171355
-0.0233609
-0.0291109
-0.0343536
-0.039052
-0.0432191
-0.0468704
-0.0500192
-0.0526802
-0.0548691
-0.0566024
-0.0578968
-0.0587692
-0.0592367
-0.0593159
-0.0590236
-0.0583758
-0.0573883
-0.0560763
-0.0544545
-0.0525371
-0.0503377
-0.0478693
-0.0451446
-0.0421757
-0.0389744
-0.0355521
-0.03192
-0.0280891
-0.0240705
-0.0198751
-0.0155139
-0.0109982
-0.00633948
-0.00154968
0.00335884
0.00837313
0.0134797
0.0186641
0.0239114
0.0292056
0.0345299
0.0398662
0.0451958
0.0504986
0.0557536
0.0609387
0.0660305
0.071005
0.0758367
0.0804996
0.0849666
0.08921
0.0932015
0.0969124
0.100314
0.103377
0.106073
0.108375
0.110253
0.111684
0.112641
0.113101
0.113044
0.11245
0.111303
0.10959
0.107299
0.104423
0.100957
0.0969017
0.0922582
0.0870284
0.0812178
0.0748852
0.0680834
0.0601605
0.0505785
-0.00638251
-0.0156638
-0.023251
-0.0296806
-0.0356085
-0.0410018
-0.0458223
-0.050084