/*--------------------------------*- C++ -*----------------------------------*\
  =========                 |
  \\      /  F ield         | OpenFOAM: The Open Source CFD Toolbox
   \\    /   O peration     | Website:  https://openfoam.org
    \\  /    A nd           | Version:  7
     \\/     M anipulation  |
\*---------------------------------------------------------------------------*/
FoamFile
{
    version     2.0;
    format      ascii;
    class       surfaceScalarField;
    location    "0.225";
    object      phi;
}
// * * * * * * * * * * * * * * * * * * * * * * * * * * * * * * * * * * * * * //

dimensions      [0 3 -1 0 0 0 0];

internalField   nonuniform List<scalar> 
12640
(
1.90139e-10
-1.90859e-10
5.55795e-10
-3.65673e-10
8.82545e-10
-3.26702e-10
1.04496e-09
-1.62455e-10
9.81036e-10
6.39475e-11
6.63619e-10
3.17379e-10
8.59458e-11
5.77711e-10
-7.4694e-10
8.3289e-10
-1.82282e-09
1.07587e-09
-3.12521e-09
1.30242e-09
-4.63515e-09
1.50994e-09
-6.33216e-09
1.69701e-09
-8.195e-09
1.86287e-09
-1.02022e-08
2.00717e-09
-1.23322e-08
2.12998e-09
-1.45637e-08
2.23153e-09
-1.68759e-08
2.31221e-09
-1.92485e-08
2.37256e-09
-2.16617e-08
2.41321e-09
-2.40965e-08
2.43482e-09
-2.65346e-08
2.43811e-09
-2.89584e-08
2.42385e-09
-3.13512e-08
2.39283e-09
-3.36971e-08
2.34584e-09
-3.59808e-08
2.28371e-09
-3.81881e-08
2.20725e-09
-4.03054e-08
2.11731e-09
-4.23201e-08
2.01471e-09
-4.42204e-08
1.90031e-09
-4.59953e-08
1.77492e-09
-4.76347e-08
1.63942e-09
-4.91294e-08
1.49465e-09
-5.04708e-08
1.34148e-09
-5.16516e-08
1.18076e-09
-5.2665e-08
1.01339e-09
-5.35052e-08
8.40246e-10
-5.41674e-08
6.62229e-10
-5.46477e-08
4.80253e-10
-5.4943e-08
2.95254e-10
-5.50511e-08
1.0818e-10
-5.49711e-08
-8.00068e-11
-5.47028e-08
-2.68325e-10
-5.4247e-08
-4.55774e-10
-5.36057e-08
-6.41341e-10
-5.27817e-08
-8.23989e-10
-5.1779e-08
-1.00266e-09
-5.06027e-08
-1.17629e-09
-4.92589e-08
-1.3438e-09
-4.77548e-08
-1.50411e-09
-4.60987e-08
-1.65612e-09
-4.43e-08
-1.79874e-09
-4.23691e-08
-1.93088e-09
-4.03176e-08
-2.05147e-09
-3.81582e-08
-2.15942e-09
-3.59045e-08
-2.2537e-09
-3.35712e-08
-2.33328e-09
-3.1174e-08
-2.39717e-09
-2.87296e-08
-2.44442e-09
-2.62555e-08
-2.47414e-09
-2.377e-08
-2.4855e-09
-2.12922e-08
-2.47772e-09
-1.88421e-08
-2.45011e-09
-1.64401e-08
-2.40206e-09
-1.4107e-08
-2.33308e-09
-1.18642e-08
-2.24279e-09
-9.73323e-09
-2.13094e-09
-7.73574e-09
-1.99748e-09
-5.89317e-09
-1.84256e-09
-4.22659e-09
-1.66659e-09
-2.75626e-09
-1.47033e-09
-1.50121e-09
-1.25506e-09
-4.78474e-10
-1.02274e-09
2.97967e-10
-7.76446e-10
8.18894e-10
-5.2093e-10
1.08267e-09
-2.63775e-10
1.1e-09
-1.73364e-11
9.01938e-10
1.98063e-10
5.54189e-10
3.4775e-10
1.83891e-10
3.70292e-10
1.83887e-10
3.65772e-10
-5.56591e-10
8.85907e-10
-8.85782e-10
1.21581e-09
-6.56641e-10
1.13277e-09
-7.93656e-11
4.99172e-10
6.97519e-10
-7.58646e-10
1.57525e-09
-2.66988e-09
2.48891e-09
-5.23336e-09
3.39637e-09
-8.42765e-09
4.2702e-09
-1.22178e-08
5.09249e-09
-1.65596e-08
5.85173e-09
-2.14031e-08
6.54056e-09
-2.66948e-08
7.15453e-09
-3.23789e-08
7.69126e-09
-3.83987e-08
8.14978e-09
-4.46974e-08
8.53017e-09
-5.12185e-08
8.83331e-09
-5.79066e-08
9.06066e-09
-6.47075e-08
9.2141e-09
-7.15685e-08
9.29584e-09
-7.84388e-08
9.30836e-09
-8.52692e-08
9.25431e-09
-9.20129e-08
9.13649e-09
-9.86248e-08
8.95782e-09
-1.05062e-07
8.7213e-09
-1.11285e-07
8.42998e-09
-1.17255e-07
8.08699e-09
-1.22936e-07
7.69548e-09
-1.28294e-07
7.25864e-09
-1.33299e-07
6.77969e-09
-1.37921e-07
6.26187e-09
-1.42135e-07
5.70847e-09
-1.45916e-07
5.1228e-09
-1.49244e-07
4.50821e-09
-1.52098e-07
3.8681e-09
-1.54464e-07
3.20589e-09
-1.56327e-07
2.52508e-09
-1.57676e-07
1.82919e-09
-1.58502e-07
1.12183e-09
-1.58801e-07
4.06655e-10
-1.58568e-07
-3.12616e-10
-1.57804e-07
-1.03219e-09
-1.56512e-07
-1.74822e-09
-1.54697e-07
-2.45679e-09
-1.52367e-07
-3.15393e-09
-1.49534e-07
-3.83561e-09
-1.46212e-07
-4.49776e-09
-1.4242e-07
-5.13627e-09
-1.38177e-07
-5.74701e-09
-1.33507e-07
-6.32583e-09
-1.28437e-07
-6.86858e-09
-1.22997e-07
-7.37115e-09
-1.17219e-07
-7.82945e-09
-1.11139e-07
-8.23948e-09
-1.04795e-07
-8.59732e-09
-9.82294e-08
-8.89916e-09
-9.14852e-08
-9.14135e-09
-8.46093e-08
-9.3204e-09
-7.76504e-08
-9.43304e-09
-7.06596e-08
-9.47625e-09
-6.369e-08
-9.4473e-09
-5.67963e-08
-9.34379e-09
-5.00346e-08
-9.16371e-09
-4.34622e-08
-8.9055e-09
-3.71369e-08
-8.56812e-09
-3.11166e-08
-8.15116e-09
-2.54591e-08
-7.65499e-09
-2.02208e-08
-7.0809e-09
-1.5456e-08
-6.43137e-09
-1.12159e-08
-5.71047e-09
-7.54656e-09
-4.92433e-09
-4.48725e-09
-4.08204e-09
-2.06683e-09
-3.19685e-09
-2.99541e-10
-2.28822e-09
8.21563e-10
-1.38488e-09
1.33408e-09
-5.29868e-10
1.31999e-09
2.1216e-10
9.23461e-10
7.44271e-10
3.70296e-10
9.23453e-10
5.54192e-10
3.29883e-10
-8.86464e-10
6.65036e-10
-1.221e-09
6.10955e-10
-6.02537e-10
-9.32231e-11
6.24765e-10
-1.6181e-09
2.22244e-09
-4.0629e-09
4.02001e-09
-7.47188e-09
5.89789e-09
-1.1849e-08
7.77349e-09
-1.71688e-08
9.59004e-09
-2.3385e-08
1.13087e-08
-3.04362e-08
1.29029e-08
-3.82509e-08
1.43552e-08
-4.67505e-08
1.56542e-08
-5.58523e-08
1.6793e-08
-6.54708e-08
1.77682e-08
-7.55194e-08
1.85788e-08
-8.59117e-08
1.92256e-08
-9.65621e-08
1.9711e-08
-1.07386e-07
2.00383e-08
-1.18302e-07
2.02118e-08
-1.2923e-07
2.02362e-08
-1.40093e-07
2.0117e-08
-1.50816e-07
1.986e-08
-1.6133e-07
1.94712e-08
-1.71565e-07
1.89569e-08
-1.81459e-07
1.83237e-08
-1.9095e-07
1.75781e-08
-1.99982e-07
1.67269e-08
-2.085e-07
1.57771e-08
-2.16456e-07
1.47356e-08
-2.23804e-07
1.36094e-08
-2.30501e-07
1.24057e-08
-2.3651e-07
1.11317e-08
-2.41796e-07
9.79479e-09
-2.4633e-07
8.40231e-09
-2.50086e-07
6.9618e-09
-2.53042e-07
5.48089e-09
-2.5518e-07
3.96733e-09
-2.56488e-07
2.42899e-09
-2.56955e-07
8.73866e-10
-2.56577e-07
-6.89905e-10
-2.55356e-07
-2.25405e-09
-2.53294e-07
-3.81016e-09
-2.50401e-07
-5.34971e-09
-2.46691e-07
-6.86405e-09
-2.42182e-07
-8.34442e-09
-2.36898e-07
-9.78197e-09
-2.30866e-07
-1.11678e-08
-2.2412e-07
-1.2493e-08
-2.16697e-07
-1.37485e-08
-2.0864e-07
-1.49255e-08
-1.99997e-07
-1.6015e-08
-1.90818e-07
-1.70084e-08
-1.8116e-07
-1.78969e-08
-1.71085e-07
-1.86723e-08
-1.60658e-07
-1.93265e-08
-1.49948e-07
-1.98515e-08
-1.39028e-07
-2.02403e-08
-1.27975e-07
-2.04858e-08
-1.16869e-07
-2.05819e-08
-1.05794e-07
-2.05228e-08
-9.48336e-08
-2.03039e-08
-8.40761e-08
-1.99212e-08
-7.36098e-08
-1.93718e-08
-6.35236e-08
-1.86542e-08
-5.39065e-08
-1.77683e-08
-4.48459e-08
-1.67156e-08
-3.64268e-08
-1.55e-08
-2.873e-08
-1.41282e-08
-2.18302e-08
-1.26102e-08
-1.57936e-08
-1.09609e-08
-1.06743e-08
-9.20131e-09
-6.51004e-09
-7.36114e-09
-3.31602e-09
-5.48223e-09
-1.07724e-09
-3.62367e-09
2.6214e-10
-1.86925e-09
8.12208e-10
-3.37912e-10
7.52836e-10
8.03643e-10
3.50474e-10
1.32581e-09
9.04681e-10
1.71347e-10
-1.05781e-09
1.03175e-10
-1.1529e-09
-5.90855e-10
9.14586e-11
-2.17443e-09
2.2084e-09
-4.82456e-09
4.87258e-09
-8.64747e-09
7.8429e-09
-1.36925e-08
1.09429e-08
-1.99643e-08
1.40454e-08
-2.74338e-08
1.70595e-08
-3.60457e-08
1.99205e-08
-4.57257e-08
2.25829e-08
-5.63855e-08
2.5015e-08
-6.7927e-08
2.71957e-08
-8.02454e-08
2.91114e-08
-9.32318e-08
3.07545e-08
-1.06775e-07
3.21218e-08
-1.20762e-07
3.32132e-08
-1.35083e-07
3.40317e-08
-1.49627e-07
3.45819e-08
-1.64285e-07
3.48704e-08
-1.78954e-07
3.49047e-08
-1.9353e-07
3.46934e-08
-2.07916e-07
3.4246e-08
-2.22018e-07
3.35726e-08
-2.35744e-07
3.26837e-08
-2.49011e-07
3.15902e-08
-2.61736e-07
3.03034e-08
-2.73844e-07
2.88347e-08
-2.85263e-07
2.7196e-08
-2.95926e-07
2.53993e-08
-3.05774e-07
2.34565e-08
-3.14748e-07
2.13801e-08
-3.22799e-07
1.91825e-08
-3.2988e-07
1.68764e-08
-3.35953e-07
1.44746e-08
-3.40981e-07
1.199e-08
-3.44936e-07
9.43598e-09
-3.47795e-07
6.82586e-09
-3.49539e-07
4.1733e-09
-3.50157e-07
1.49213e-09
-3.49644e-07
-1.20356e-09
-3.47998e-07
-3.89949e-09
-3.45227e-07
-6.58114e-09
-3.41343e-07
-9.23379e-09
-3.36365e-07
-1.18425e-08
-3.30317e-07
-1.43923e-08
-3.23231e-07
-1.68678e-08
-3.15145e-07
-1.92539e-08
-3.06103e-07
-2.15351e-08
-2.96155e-07
-2.36961e-08
-2.85359e-07
-2.57216e-08
-2.73778e-07
-2.75965e-08
-2.6148e-07
-2.93058e-08
-2.48542e-07
-3.0835e-08
-2.35045e-07
-3.21698e-08
-2.21074e-07
-3.32965e-08
-2.06724e-07
-3.42022e-08
-1.9209e-07
-3.48744e-08
-1.77274e-07
-3.53017e-08
-1.62382e-07
-3.54739e-08
-1.47523e-07
-3.53818e-08
-1.32809e-07
-3.50177e-08
-1.18355e-07
-3.43756e-08
-1.04275e-07
-3.34513e-08
-9.06864e-08
-3.2243e-08
-7.77032e-08
-3.07514e-08
-6.54381e-08
-2.89807e-08
-5.39995e-08
-2.69387e-08
-4.34895e-08
-2.46381e-08
-3.40018e-08
-2.2098e-08
-2.56179e-08
-1.93448e-08
-1.84034e-08
-1.64158e-08
-1.24028e-08
-1.33617e-08
-7.63349e-09
-1.02516e-08
-4.07717e-09
-7.17998e-09
-1.67078e-09
-4.27563e-09
-2.94639e-10
-1.71405e-09
2.40249e-10
2.68755e-10
2.07288e-10
1.35876e-09
1.11197e-09
-4.79265e-11
-1.00986e-09
-6.55795e-10
-5.45009e-10
-2.16103e-09
1.59672e-09
-4.80383e-09
4.85118e-09
-8.7481e-09
8.81686e-09
-1.40931e-08
1.3188e-08
-2.08837e-08
1.77335e-08
-2.91202e-08
2.22818e-08
-3.87668e-08
2.67062e-08
-4.97599e-08
3.09136e-08
-6.20136e-08
3.48366e-08
-7.54258e-08
3.84272e-08
-8.98821e-08
4.1652e-08
-1.05259e-07
4.44888e-08
-1.21429e-07
4.69243e-08
-1.38259e-07
4.89517e-08
-1.55616e-07
5.05696e-08
-1.73365e-07
5.17806e-08
-1.91373e-07
5.25908e-08
-2.09512e-07
5.30087e-08
-2.27652e-07
5.30449e-08
-2.4567e-07
5.27117e-08
-2.63447e-07
5.20227e-08
-2.80867e-07
5.09925e-08
-2.9782e-07
4.96367e-08
-3.14201e-07
4.79714e-08
-3.29911e-07
4.60135e-08
-3.44857e-07
4.37802e-08
-3.5895e-07
4.12892e-08
-3.72109e-07
3.85584e-08
-3.84259e-07
3.56063e-08
-3.9533e-07
3.24515e-08
-4.0526e-07
2.91128e-08
-4.13994e-07
2.56096e-08
-4.2148e-07
2.19613e-08
-4.27678e-07
1.81877e-08
-4.32551e-07
1.43089e-08
-4.36071e-07
1.03454e-08
-4.38215e-07
6.31779e-09
-4.3897e-07
2.24724e-09
-4.38329e-07
-1.84487e-09
-4.36292e-07
-5.93682e-09
-4.32866e-07
-1.00066e-08
-4.28068e-07
-1.40317e-08
-4.21921e-07
-1.79898e-08
-4.14455e-07
-2.18578e-08
-4.0571e-07
-2.56129e-08
-3.95732e-07
-2.92318e-08
-3.84576e-07
-3.26914e-08
-3.72304e-07
-3.59685e-08
-3.58985e-07
-3.90402e-08
-3.44698e-07
-4.18836e-08
-3.29527e-07
-4.44764e-08
-3.13566e-07
-4.67967e-08
-2.96912e-07
-4.88233e-08
-2.79673e-07
-5.05357e-08
-2.6196e-07
-5.19147e-08
-2.43893e-07
-5.29419e-08
-2.25594e-07
-5.36006e-08
-2.07192e-07
-5.38759e-08
-1.8882e-07
-5.37544e-08
-1.70612e-07
-5.32254e-08
-1.52707e-07
-5.22806e-08
-1.35243e-07
-5.09147e-08
-1.1836e-07
-4.91261e-08
-1.02194e-07
-4.69172e-08
-8.68797e-08
-4.42954e-08
-7.25441e-08
-4.12742e-08
-5.93078e-08
-3.78744e-08
-4.728e-08
-3.41257e-08
-3.65554e-08
-3.00695e-08
-2.72099e-08
-2.57614e-08
-1.92954e-08
-2.12762e-08
-1.28337e-08
-1.67133e-08
-7.80952e-09
-1.22041e-08
-4.16226e-09
-7.92289e-09
-1.77671e-09
-4.09959e-09
-4.73557e-10
-1.03438e-09
1.5839e-12
8.8361e-10
1.11355e-09
-2.94697e-10
-7.15166e-10
-1.51948e-09
6.7981e-10
-3.94269e-09
4.01994e-09
-7.76322e-09
8.67167e-09
-1.3118e-08
1.41717e-08
-2.00885e-08
2.01584e-08
-2.87067e-08
2.63517e-08
-3.89626e-08
3.25378e-08
-5.08111e-08
3.85547e-08
-6.41783e-08
4.42808e-08
-7.89672e-08
4.96255e-08
-9.50627e-08
5.45228e-08
-1.12336e-07
5.89255e-08
-1.30649e-07
6.28016e-08
-1.49855e-07
6.61305e-08
-1.69805e-07
6.89012e-08
-1.90345e-07
7.11097e-08
-2.11322e-07
7.27583e-08
-2.32585e-07
7.38538e-08
-2.53983e-07
7.44067e-08
-2.75369e-07
7.44307e-08
-2.96599e-07
7.3942e-08
-3.17535e-07
7.29587e-08
-3.38043e-07
7.15006e-08
-3.57995e-07
6.95887e-08
-3.77269e-07
6.72453e-08
-3.95749e-07
6.44935e-08
-4.13326e-07
6.1357e-08
-4.29897e-07
5.78605e-08
-4.45368e-07
5.40289e-08
-4.59649e-07
4.98878e-08
-4.72661e-07
4.54632e-08
-4.8433e-07
4.07817e-08
-4.9459e-07
3.587e-08
-5.03384e-07
3.07555e-08
-5.10663e-07
2.5466e-08
-5.16383e-07
2.00297e-08
-5.20513e-07
1.44751e-08
-5.23027e-07
8.83143e-09
-5.23908e-07
3.12815e-09
-5.23148e-07
-2.60473e-09
-5.20748e-07
-8.33677e-09
-5.16717e-07
-1.40371e-08
-5.11075e-07
-1.96745e-08
-5.03847e-07
-2.52173e-08
-4.95071e-07
-3.06338e-08
-4.84792e-07
-3.58916e-08
-4.73065e-07
-4.09587e-08
-4.59954e-07
-4.58027e-08
-4.45531e-07
-5.03914e-08
-4.29879e-07
-5.46928e-08
-4.13087e-07
-5.86755e-08
-3.95255e-07
-6.23083e-08
-3.76491e-07
-6.5561e-08
-3.5691e-07
-6.84044e-08
-3.36635e-07
-7.08104e-08
-3.15797e-07
-7.27523e-08
-2.94534e-07
-7.42054e-08
-2.72988e-07
-7.51469e-08
-2.51307e-07
-7.55564e-08
-2.29645e-07
-7.54165e-08
-2.08158e-07
-7.47128e-08
-1.87003e-07
-7.3435e-08
-1.66341e-07
-7.15767e-08
-1.4633e-07
-6.9137e-08
-1.27127e-07
-6.61207e-08
-1.08883e-07
-6.25395e-08
-9.17433e-08
-5.84137e-08
-7.58442e-08
-5.37735e-08
-6.13088e-08
-4.86611e-08
-4.8244e-08
-4.31343e-08
-3.67362e-08
-3.72692e-08
-2.68463e-08
-3.11661e-08
-1.86045e-08
-2.4955e-08
-1.20042e-08
-1.88044e-08
-6.99531e-09
-1.29318e-08
-3.47808e-09
-7.61683e-09
-1.29666e-09
-3.21579e-09
-2.33309e-10
-1.79744e-10
8.80245e-10
-5.50849e-10
-1.6431e-10
-2.43033e-09
2.55932e-09
-5.83127e-09
7.42087e-09
-1.09013e-08
1.37418e-08
-1.77413e-08
2.10117e-08
-2.64063e-08
2.88234e-08
-3.69089e-08
3.68543e-08
-4.92239e-08
4.48527e-08
-6.32928e-08
5.26237e-08
-7.90297e-08
6.00176e-08
-9.63251e-08
6.6921e-08
-1.15052e-07
7.32492e-08
-1.35067e-07
7.89407e-08
-1.56217e-07
8.39524e-08
-1.78343e-07
8.8256e-08
-2.01277e-07
9.18351e-08
-2.2485e-07
9.46831e-08
-2.48893e-07
9.6801e-08
-2.73235e-07
9.81961e-08
-2.97709e-07
9.8881e-08
-3.22151e-07
9.88724e-08
-3.464e-07
9.81906e-08
-3.70299e-07
9.68584e-08
-3.937e-07
9.49012e-08
-4.16458e-07
9.23462e-08
-4.38434e-07
8.92221e-08
-4.595e-07
8.5559e-08
-4.79531e-07
8.13881e-08
-4.98412e-07
7.67415e-08
-5.16035e-07
7.16521e-08
-5.32301e-07
6.61536e-08
-5.47118e-07
6.02804e-08
-5.60404e-07
5.40674e-08
-5.72084e-07
4.75502e-08
-5.82094e-07
4.07651e-08
-5.90376e-07
3.37487e-08
-5.96885e-07
2.65384e-08
-6.01582e-07
1.91722e-08
-6.04439e-07
1.16886e-08
-6.05438e-07
4.12674e-09
-6.04569e-07
-3.47364e-09
-6.01833e-07
-1.10723e-08
-5.97242e-07
-1.86283e-08
-5.90816e-07
-2.61004e-08
-5.82587e-07
-3.34468e-08
-5.72595e-07
-4.06254e-08
-5.60893e-07
-4.75938e-08
-5.47542e-07
-5.43096e-08
-5.32615e-07
-6.07301e-08
-5.16193e-07
-6.6813e-08
-4.9837e-07
-7.25164e-08
-4.79246e-07
-7.77987e-08
-4.58935e-07
-8.26193e-08
-4.37558e-07
-8.69386e-08
-4.15244e-07
-9.07184e-08
-3.92132e-07
-9.39221e-08
-3.68369e-07
-9.65152e-08
-3.44109e-07
-9.84654e-08
-3.19513e-07
-9.97435e-08
-2.94745e-07
-1.00323e-07
-2.69979e-07
-1.00183e-07
-2.45387e-07
-9.93046e-08
-2.21147e-07
-9.76753e-08
-1.97435e-07
-9.52882e-08
-1.74429e-07
-9.21432e-08
-1.52301e-07
-8.82482e-08
-1.31221e-07
-8.36201e-08
-1.11348e-07
-7.82866e-08
-9.28331e-08
-7.22883e-08
-7.58128e-08
-6.56815e-08
-6.04063e-08
-5.85408e-08
-4.67117e-08
-5.09638e-08
-3.48014e-08
-4.30764e-08
-2.47176e-08
-3.50388e-08
-1.64674e-08
-2.70547e-08
-1.00182e-08
-1.9381e-08
-5.29376e-09
-1.23413e-08
-2.17103e-09
-6.33851e-09
-4.79017e-10
-1.87175e-09
4.01233e-10
-8.06549e-10
6.4223e-10
-3.35362e-09
5.10637e-09
-7.75959e-09
1.18269e-08
-1.41169e-08
2.00991e-08
-2.24844e-08
2.93793e-08
-3.28855e-08
3.92245e-08
-4.5308e-08
4.92768e-08
-5.97069e-08
5.92516e-08
-7.60073e-08
6.89242e-08
-9.41086e-08
7.81189e-08
-1.13888e-07
8.67001e-08
-1.35204e-07
9.45652e-08
-1.57901e-07
1.01638e-07
-1.81813e-07
1.07864e-07
-2.06764e-07
1.13207e-07
-2.32574e-07
1.17645e-07
-2.59058e-07
1.21168e-07
-2.86032e-07
1.23775e-07
-3.1331e-07
1.25474e-07
-3.40709e-07
1.2628e-07
-3.68049e-07
1.26212e-07
-3.95153e-07
1.25295e-07
-4.21852e-07
1.23557e-07
-4.4798e-07
1.21029e-07
-4.73379e-07
1.17745e-07
-4.97898e-07
1.13741e-07
-5.21392e-07
1.09053e-07
-5.43726e-07
1.03722e-07
-5.64772e-07
9.77879e-08
-5.84412e-07
9.12922e-08
-6.02536e-07
8.42775e-08
-6.19043e-07
7.67873e-08
-6.33842e-07
6.8866e-08
-6.4685e-07
6.05587e-08
-6.57997e-07
5.19115e-08
-6.67219e-07
4.2971e-08
-6.74465e-07
3.37848e-08
-6.79694e-07
2.4401e-08
-6.82874e-07
1.48687e-08
-6.83985e-07
5.23766e-09
-6.83017e-07
-4.44167e-09
-6.79971e-07
-1.41181e-08
-6.7486e-07
-2.37398e-08
-6.67706e-07
-3.32543e-08
-6.58544e-07
-4.26086e-08
-6.4742e-07
-5.17493e-08
-6.34391e-07
-6.06228e-08
-6.19526e-07
-6.91753e-08
-6.02903e-07
-7.73529e-08
-5.84614e-07
-8.51022e-08
-5.6476e-07
-9.23701e-08
-5.43454e-07
-9.91043e-08
-5.2082e-07
-1.05254e-07
-4.9699e-07
-1.10768e-07
-4.72109e-07
-1.156e-07
-4.46327e-07
-1.19704e-07
-4.19807e-07
-1.23035e-07
-3.92717e-07
-1.25555e-07
-3.65233e-07
-1.27227e-07
-3.37538e-07
-1.28019e-07
-3.09818e-07
-1.27903e-07
-2.82264e-07
-1.26858e-07
-2.55069e-07
-1.2487e-07
-2.28427e-07
-1.2193e-07
-2.0253e-07
-1.1804e-07
-1.77567e-07
-1.13211e-07
-1.53722e-07
-1.07465e-07
-1.31169e-07
-1.00839e-07
-1.10074e-07
-9.33839e-08
-9.05854e-08
-8.517e-08
-7.28363e-08
-7.62898e-08
-5.69381e-08
-6.6862e-08
-4.29771e-08
-5.70374e-08
-3.10108e-08
-4.70051e-08
-2.10646e-08
-3.70009e-08
-1.31286e-08
-2.7317e-08
-7.15568e-09
-1.83142e-08
-3.06121e-09
-1.0433e-08
-7.25312e-10
-4.20764e-09
-3.24079e-10
-1.05672e-09
1.69894e-09
-4.2691e-09
8.31876e-09
-9.6859e-09
1.72437e-08
-1.73439e-08
2.7757e-08
-2.72576e-08
3.9293e-08
-3.94148e-08
5.13817e-08
-5.37751e-08
6.36371e-08
-7.02702e-08
7.57467e-08
-8.88056e-08
8.74597e-08
-1.09264e-07
9.8577e-08
-1.31507e-07
1.08943e-07
-1.55379e-07
1.18437e-07
-1.8071e-07
1.2697e-07
-2.07322e-07
1.34475e-07
-2.35024e-07
1.40909e-07
-2.63622e-07
1.46243e-07
-2.92918e-07
1.50464e-07
-3.22714e-07
1.5357e-07
-3.52809e-07
1.55569e-07
-3.83008e-07
1.56478e-07
-4.13114e-07
1.56319e-07
-4.4294e-07
1.55121e-07
-4.72301e-07
1.52918e-07
-5.01018e-07
1.49746e-07
-5.2892e-07
1.45647e-07
-5.55844e-07
1.40664e-07
-5.81634e-07
1.34843e-07
-6.06142e-07
1.28231e-07
-6.29232e-07
1.20877e-07
-6.50773e-07
1.12834e-07
-6.70648e-07
1.04152e-07
-6.88746e-07
9.48856e-08
-7.04969e-07
8.50889e-08
-7.19228e-07
7.48177e-08
-7.31445e-07
6.41284e-08
-7.41553e-07
5.30786e-08
-7.49495e-07
4.17268e-08
-7.55226e-07
3.01324e-08
-7.58713e-07
1.83557e-08
-7.59934e-07
6.45809e-09
-7.58877e-07
-5.49836e-09
-7.55544e-07
-1.74506e-08
-7.49949e-07
-2.93349e-08
-7.42117e-07
-4.10867e-08
-7.32084e-07
-5.26409e-08
-7.19902e-07
-6.39319e-08
-7.05631e-07
-7.48939e-08
-6.89345e-07
-8.54607e-08
-6.71132e-07
-9.55664e-08
-6.51089e-07
-1.05145e-07
-6.29326e-07
-1.14133e-07
-6.05965e-07
-1.22465e-07
-5.81141e-07
-1.30078e-07
-5.54996e-07
-1.36913e-07
-5.27686e-07
-1.4291e-07
-4.99375e-07
-1.48015e-07
-4.70237e-07
-1.52173e-07
-4.40455e-07
-1.55337e-07
-4.10219e-07
-1.57463e-07
-3.79725e-07
-1.58513e-07
-3.49174e-07
-1.58454e-07
-3.18773e-07
-1.5726e-07
-2.88729e-07
-1.54914e-07
-2.59251e-07
-1.51409e-07
-2.30545e-07
-1.46746e-07
-2.02816e-07
-1.4094e-07
-1.76261e-07
-1.3402e-07
-1.5107e-07
-1.26031e-07
-1.2742e-07
-1.17033e-07
-1.05476e-07
-1.07114e-07
-8.53858e-08
-9.63805e-08
-6.72741e-08
-8.49736e-08
-5.12443e-08
-7.30673e-08
-3.73723e-08
-6.08771e-08
-2.57053e-08
-4.86679e-08
-1.62597e-08
-3.67625e-08
-9.0213e-09
-2.55526e-08
-3.94639e-09
-1.55079e-08
-9.66851e-10
-7.18718e-09
-1.29093e-09
-1.29896e-09
2.99794e-09
-5.16566e-09
1.21855e-08
-1.15854e-08
2.36634e-08
-2.05411e-08
3.67128e-08
-3.20025e-08
5.07544e-08
-4.592e-08
6.52992e-08
-6.22224e-08
7.99394e-08
-8.08153e-08
9.43396e-08
-1.01583e-07
1.08227e-07
-1.24388e-07
1.21382e-07
-1.49075e-07
1.3363e-07
-1.75475e-07
1.44837e-07
-2.03402e-07
1.54897e-07
-2.32663e-07
1.63736e-07
-2.63055e-07
1.71301e-07
-2.94371e-07
1.77559e-07
-3.26399e-07
1.82493e-07
-3.58928e-07
1.86099e-07
-3.91745e-07
1.88386e-07
-4.24639e-07
1.89373e-07
-4.57405e-07
1.89085e-07
-4.8984e-07
1.87556e-07
-5.21748e-07
1.84825e-07
-5.52938e-07
1.80936e-07
-5.83228e-07
1.75937e-07
-6.12443e-07
1.69879e-07
-6.40416e-07
1.62816e-07
-6.66991e-07
1.54806e-07
-6.92021e-07
1.45907e-07
-7.15366e-07
1.36179e-07
-7.36901e-07
1.25687e-07
-7.56507e-07
1.14492e-07
-7.7408e-07
1.02662e-07
-7.89524e-07
9.02619e-08
-8.02756e-07
7.73604e-08
-8.13704e-07
6.40264e-08
-8.22307e-07
5.03302e-08
-8.28518e-07
3.63431e-08
-8.323e-07
2.21377e-08
-8.3363e-07
7.78752e-09
-8.32495e-07
-6.63276e-09
-8.28898e-07
-2.10475e-08
-8.22853e-07
-3.53802e-08
-8.14386e-07
-4.95534e-08
-8.03538e-07
-6.3489e-08
-7.90362e-07
-7.71084e-08
-7.74923e-07
-9.03327e-08
-7.57301e-07
-1.03083e-07
-7.37588e-07
-1.1528e-07
-7.15888e-07
-1.26845e-07
-6.9232e-07
-1.37701e-07
-6.67014e-07
-1.47771e-07
-6.40112e-07
-1.56981e-07
-6.11767e-07
-1.65258e-07
-5.82146e-07
-1.72532e-07
-5.51423e-07
-1.78738e-07
-5.19784e-07
-1.83812e-07
-4.87424e-07
-1.87697e-07
-4.54546e-07
-1.90342e-07
-4.21358e-07
-1.91701e-07
-3.88076e-07
-1.91735e-07
-3.54919e-07
-1.90416e-07
-3.22109e-07
-1.87724e-07
-2.89868e-07
-1.8365e-07
-2.58417e-07
-1.78197e-07
-2.27974e-07
-1.71383e-07
-1.98751e-07
-1.63243e-07
-1.70952e-07
-1.5383e-07
-1.44769e-07
-1.43216e-07
-1.20382e-07
-1.31501e-07
-9.79518e-08
-1.1881e-07
-7.76229e-08
-1.05303e-07
-5.95159e-08
-9.11742e-08
-4.37282e-08
-7.66649e-08
-3.03311e-08
-6.2065e-08
-1.937e-08
-4.77236e-08
-1.08653e-08
-3.40574e-08
-4.81505e-09
-2.15582e-08
-1.20108e-09
-1.08012e-08
-2.49201e-09
-1.53245e-09
4.53037e-09
-6.03785e-09
1.66909e-08
-1.34445e-08
3.107e-08
-2.36845e-08
4.69528e-08
-3.66835e-08
6.37534e-08
-5.23541e-08
8.09698e-08
-7.05925e-08
9.81779e-08
-9.12771e-08
1.15024e-07
-1.14268e-07
1.31218e-07
-1.39407e-07
1.46521e-07
-1.66521e-07
1.60745e-07
-1.95423e-07
1.73738e-07
-2.25913e-07
1.85387e-07
-2.57783e-07
1.95606e-07
-2.90816e-07
2.04335e-07
-3.24793e-07
2.11536e-07
-3.59488e-07
2.17188e-07
-3.94677e-07
2.21288e-07
-4.30137e-07
2.23845e-07
-4.65644e-07
2.2488e-07
-5.0098e-07
2.24421e-07
-5.35932e-07
2.22508e-07
-5.70292e-07
2.19185e-07
-6.03859e-07
2.14504e-07
-6.3644e-07
2.08518e-07
-6.67851e-07
2.01289e-07
-6.97914e-07
1.9288e-07
-7.26465e-07
1.83357e-07
-7.53348e-07
1.72789e-07
-7.78415e-07
1.61247e-07
-8.01534e-07
1.48805e-07
-8.22579e-07
1.35538e-07
-8.4144e-07
1.21522e-07
-8.58015e-07
1.06837e-07
-8.72216e-07
9.15615e-08
-8.83967e-07
7.57774e-08
-8.93204e-07
5.95672e-08
-8.99876e-07
4.30151e-08
-9.03945e-07
2.62064e-08
-9.05385e-07
9.22767e-09
-9.04184e-07
-7.83325e-09
-9.00345e-07
-2.48874e-08
-8.9388e-07
-4.18446e-08
-8.8482e-07
-5.8614e-08
-8.73205e-07
-7.51037e-08
-8.59092e-07
-9.12213e-08
-8.42551e-07
-1.06874e-07
-8.23664e-07
-1.21969e-07
-8.0253e-07
-1.36414e-07
-7.79259e-07
-1.50116e-07
-7.53975e-07
-1.62985e-07
-7.26816e-07
-1.7493e-07
-6.97932e-07
-1.85865e-07
-6.67485e-07
-1.95705e-07
-6.3565e-07
-2.04367e-07
-6.02613e-07
-2.11775e-07
-5.68569e-07
-2.17856e-07
-5.33724e-07
-2.22542e-07
-4.98293e-07
-2.25773e-07
-4.62496e-07
-2.27497e-07
-4.26562e-07
-2.2767e-07
-3.90722e-07
-2.26257e-07
-3.5521e-07
-2.23236e-07
-3.20263e-07
-2.18597e-07
-2.86116e-07
-2.12344e-07
-2.52999e-07
-2.045e-07
-2.2114e-07
-1.95103e-07
-1.90756e-07
-1.84214e-07
-1.62055e-07
-1.71917e-07
-1.35233e-07
-1.58324e-07
-1.10468e-07
-1.43575e-07
-8.79222e-08
-1.27848e-07
-6.77371e-08
-1.11359e-07
-5.00327e-08
-9.43692e-08
-3.49069e-08
-7.71908e-08
-2.24355e-08
-6.0195e-08
-1.2674e-08
-4.38188e-08
-5.66158e-09
-2.85706e-08
-1.42705e-09
-1.50357e-08
-3.91907e-09
-1.75714e-09
6.28749e-09
-6.88371e-09
2.18175e-08
-1.52569e-08
3.94432e-08
-2.67616e-08
5.84576e-08
-4.12809e-08
7.82726e-08
-5.86897e-08
9.83787e-08
-7.88515e-08
1.1834e-07
-1.01616e-07
1.37788e-07
-1.26817e-07
1.56419e-07
-1.54275e-07
1.7398e-07
-1.83798e-07
1.90267e-07
-2.15179e-07
2.0512e-07
-2.48205e-07
2.18412e-07
-2.8265e-07
2.30051e-07
-3.18284e-07
2.3997e-07
-3.54875e-07
2.48126e-07
-3.92185e-07
2.54498e-07
-4.29977e-07
2.5908e-07
-4.68015e-07
2.61883e-07
-5.06066e-07
2.62931e-07
-5.439e-07
2.62256e-07
-5.81294e-07
2.59902e-07
-6.18028e-07
2.5592e-07
-6.53893e-07
2.50368e-07
-6.88685e-07
2.43311e-07
-7.22212e-07
2.34816e-07
-7.54287e-07
2.24956e-07
-7.84739e-07
2.13808e-07
-8.13402e-07
2.01452e-07
-8.40123e-07
1.87969e-07
-8.64762e-07
1.73444e-07
-8.87189e-07
1.57965e-07
-9.07286e-07
1.41619e-07
-9.24947e-07
1.24498e-07
-9.4008e-07
1.06694e-07
-9.52604e-07
8.83019e-08
-9.62454e-07
6.94165e-08
-9.69574e-07
5.01353e-08
-9.73925e-07
3.05571e-08
-9.75479e-07
1.07823e-08
-9.74225e-07
-9.08757e-09
-9.70163e-07
-2.89495e-08
-9.63308e-07
-4.86993e-08
-9.5369e-07
-6.82318e-08
-9.41353e-07
-8.74407e-08
-9.26355e-07
-1.06219e-07
-9.08769e-07
-1.2446e-07
-8.88682e-07
-1.42056e-07
-8.66196e-07
-1.589e-07
-8.41426e-07
-1.74886e-07
-8.14503e-07
-1.89908e-07
-7.8557e-07
-2.03863e-07
-7.54785e-07
-2.1665e-07
-7.22318e-07
-2.28172e-07
-6.88351e-07
-2.38334e-07
-6.5308e-07
-2.47046e-07
-6.1671e-07
-2.54226e-07
-5.79456e-07
-2.59795e-07
-5.41544e-07
-2.63685e-07
-5.03206e-07
-2.65835e-07
-4.64682e-07
-2.66195e-07
-4.26214e-07
-2.64724e-07
-3.88051e-07
-2.61399e-07
-3.50441e-07
-2.56206e-07
-3.13633e-07
-2.49152e-07
-2.77872e-07
-2.40261e-07
-2.43399e-07
-2.29576e-07
-2.10448e-07
-2.17166e-07
-1.79241e-07
-2.03124e-07
-1.49991e-07
-1.87573e-07
-1.22896e-07
-1.7067e-07
-9.81364e-08
-1.52608e-07
-7.58766e-08
-1.33619e-07
-5.62609e-08
-1.13985e-07
-3.94145e-08
-9.40371e-08
-2.54445e-08
-7.4165e-08
-1.44415e-08
-5.48218e-08
-6.48413e-09
-3.6528e-08
-1.64477e-09
-1.9875e-08
-5.56384e-09
-1.97351e-09
8.26099e-09
-7.70351e-09
2.75475e-08
-1.70213e-08
4.87609e-08
-2.9768e-08
7.12043e-08
-4.57862e-08
9.42908e-08
-6.49141e-08
1.17507e-07
-8.69819e-08
1.40408e-07
-1.1181e-07
1.62616e-07
-1.39206e-07
1.83815e-07
-1.68968e-07
2.03742e-07
-2.00881e-07
2.22181e-07
-2.34722e-07
2.38961e-07
-2.70259e-07
2.53948e-07
-3.07251e-07
2.67043e-07
-3.45454e-07
2.78173e-07
-3.84621e-07
2.87294e-07
-4.24503e-07
2.9438e-07
-4.64851e-07
2.99428e-07
-5.05416e-07
3.02449e-07
-5.45955e-07
3.0347e-07
-5.86228e-07
3.02528e-07
-6.26e-07
2.99674e-07
-6.65045e-07
2.94964e-07
-7.03142e-07
2.88465e-07
-7.4008e-07
2.80249e-07
-7.75657e-07
2.70393e-07
-8.0968e-07
2.5898e-07
-8.41969e-07
2.46097e-07
-8.72353e-07
2.31835e-07
-9.00672e-07
2.16288e-07
-9.2678e-07
1.99551e-07
-9.5054e-07
1.81725e-07
-9.7183e-07
1.6291e-07
-9.90541e-07
1.43209e-07
-1.00658e-06
1.22729e-07
-1.01985e-06
1.01577e-07
-1.0303e-06
7.98616e-08
-1.03786e-06
5.76945e-08
-1.04249e-06
3.51882e-08
-1.04416e-06
1.24571e-08
-1.04287e-06
-1.03827e-08
-1.0386e-06
-3.32138e-08
-1.03138e-06
-5.59172e-08
-1.02124e-06
-7.8373e-08
-1.00822e-06
-1.0046e-07
-9.92386e-07
-1.22056e-07
-9.73807e-07
-1.4304e-07
-9.52575e-07
-1.63288e-07
-9.28797e-07
-1.82678e-07
-9.02592e-07
-2.01091e-07
-8.74095e-07
-2.18404e-07
-8.43457e-07
-2.34501e-07
-8.1084e-07
-2.49267e-07
-7.76421e-07
-2.6259e-07
-7.40391e-07
-2.74363e-07
-7.02953e-07
-2.84484e-07
-6.64321e-07
-2.92858e-07
-6.2472e-07
-2.99396e-07
-5.84385e-07
-3.0402e-07
-5.43559e-07
-3.06661e-07
-5.02492e-07
-3.07261e-07
-4.61441e-07
-3.05776e-07
-4.20664e-07
-3.02176e-07
-3.80423e-07
-2.96447e-07
-3.4098e-07
-2.88595e-07
-3.02596e-07
-2.78645e-07
-2.65524e-07
-2.66647e-07
-2.30016e-07
-2.52674e-07
-1.96311e-07
-2.36829e-07
-1.6464e-07
-2.19245e-07
-1.35219e-07
-2.00092e-07
-1.0825e-07
-1.79576e-07
-8.39217e-08
-1.57948e-07
-6.24029e-08
-1.35504e-07
-4.38476e-08
-1.12592e-07
-2.83939e-08
-8.96187e-08
-1.61671e-08
-6.70486e-08
-7.28323e-09
-4.54119e-08
-1.85478e-09
-2.53035e-08
-7.41862e-09
-2.18233e-09
1.04433e-08
-8.4988e-09
3.38639e-08
-1.87394e-08
5.90015e-08
-3.27047e-08
8.51696e-08
-5.01988e-08
1.11785e-07
-7.10243e-08
1.38332e-07
-9.49787e-08
1.64362e-07
-1.21852e-07
1.8949e-07
-1.51427e-07
2.1339e-07
-1.83476e-07
2.3579e-07
-2.17763e-07
2.56468e-07
-2.54045e-07
2.75243e-07
-2.92072e-07
2.91975e-07
-3.31587e-07
3.06558e-07
-3.72332e-07
3.18918e-07
-4.14045e-07
3.29007e-07
-4.56465e-07
3.36799e-07
-4.99329e-07
3.42292e-07
-5.4238e-07
3.45499e-07
-5.85362e-07
3.46452e-07
-6.28025e-07
3.45192e-07
-6.70126e-07
3.41775e-07
-7.11428e-07
3.36267e-07
-7.51704e-07
3.28741e-07
-7.90733e-07
3.19278e-07
-8.28306e-07
3.07966e-07
-8.64224e-07
2.94898e-07
-8.98299e-07
2.80172e-07
-9.30354e-07
2.6389e-07
-9.60224e-07
2.46158e-07
-9.87757e-07
2.27084e-07
-1.01281e-06
2.0678e-07
-1.03526e-06
1.8536e-07
-1.05499e-06
1.62941e-07
-1.07191e-06
1.39642e-07
-1.08591e-06
1.15584e-07
-1.09694e-06
9.0891e-08
-1.10494e-06
6.56874e-08
-1.10985e-06
4.01005e-08
-1.11165e-06
1.42595e-08
-1.11033e-06
-1.17049e-08
-1.10588e-06
-3.76601e-08
-1.09833e-06
-6.34723e-08
-1.08769e-06
-8.90058e-08
-1.07403e-06
-1.14124e-07
-1.0574e-06
-1.38691e-07
-1.03787e-06
-1.62566e-07
-1.01554e-06
-1.85614e-07
-9.90525e-07
-2.07696e-07
-9.62941e-07
-2.28675e-07
-9.32929e-07
-2.48416e-07
-9.00643e-07
-2.66787e-07
-8.66253e-07
-2.83658e-07
-8.29941e-07
-2.98902e-07
-7.91905e-07
-3.12399e-07
-7.52356e-07
-3.24034e-07
-7.11515e-07
-3.33699e-07
-6.69616e-07
-3.41295e-07
-6.26903e-07
-3.46733e-07
-5.83631e-07
-3.49934e-07
-5.40059e-07
-3.50833e-07
-4.96455e-07
-3.4938e-07
-4.53091e-07
-3.4554e-07
-4.10241e-07
-3.39296e-07
-3.68182e-07
-3.30654e-07
-3.27187e-07
-3.1964e-07
-2.87527e-07
-3.06306e-07
-2.49469e-07
-2.90732e-07
-2.1327e-07
-2.73027e-07
-1.7918e-07
-2.53335e-07
-1.47436e-07
-2.31836e-07
-1.18263e-07
-2.08749e-07
-9.18724e-08
-1.84339e-07
-6.84599e-08
-1.58916e-07
-4.82081e-08
-1.32844e-07
-3.12865e-08
-1.0654e-07
-1.78536e-08
-8.04815e-08
-8.06089e-09
-5.52046e-08
-2.05796e-09
-3.13064e-08
-9.47658e-09
-2.38449e-09
1.28278e-08
-9.27192e-09
4.07514e-08
-2.04147e-08
7.01443e-08
-3.55759e-08
1.00331e-07
-5.45232e-08
1.30732e-07
-7.70245e-08
1.60833e-07
-1.02845e-07
1.90183e-07
-1.31747e-07
2.18391e-07
-1.63483e-07
2.45126e-07
-1.97802e-07
2.7011e-07
-2.34447e-07
2.93113e-07
-2.73153e-07
3.13949e-07
-3.13652e-07
3.32474e-07
-3.55671e-07
3.48577e-07
-3.98935e-07
3.62183e-07
-4.43169e-07
3.73241e-07
-4.88098e-07
3.81728e-07
-5.33448e-07
3.87642e-07
-5.7895e-07
3.91001e-07
-6.24338e-07
3.9184e-07
-6.69352e-07
3.90206e-07
-7.13741e-07
3.86163e-07
-7.57258e-07
3.79784e-07
-7.99667e-07
3.7115e-07
-8.40743e-07
3.60353e-07
-8.80268e-07
3.47491e-07
-9.18037e-07
3.32667e-07
-9.53855e-07
3.15991e-07
-9.8754e-07
2.97576e-07
-1.01892e-06
2.77541e-07
-1.04785e-06
2.56006e-07
-1.07416e-06
2.33097e-07
-1.09775e-06
2.08942e-07
-1.11847e-06
1.8367e-07
-1.13625e-06
1.57415e-07
-1.15097e-06
1.30311e-07
-1.16258e-06
1.02497e-07
-1.171e-06
7.41118e-08
-1.1762e-06
4.52976e-08
-1.17814e-06
1.61986e-08
-1.17681e-06
-1.30395e-08
-1.1722e-06
-4.22686e-08
-1.16433e-06
-7.13392e-08
-1.15324e-06
-1.001e-07
-1.13896e-06
-1.28399e-07
-1.12157e-06
-1.56083e-07
-1.10114e-06
-1.82998e-07
-1.07776e-06
-2.0899e-07
-1.05155e-06
-2.33904e-07
-1.02264e-06