/*--------------------------------*- C++ -*----------------------------------*\
  =========                 |
  \\      /  F ield         | OpenFOAM: The Open Source CFD Toolbox
   \\    /   O peration     | Website:  https://openfoam.org
    \\  /    A nd           | Version:  7
     \\/     M anipulation  |
\*---------------------------------------------------------------------------*/
FoamFile
{
    version     2.0;
    format      ascii;
    class       volVectorField;
    location    "0.225";
    object      U;
}
// * * * * * * * * * * * * * * * * * * * * * * * * * * * * * * * * * * * * * //

dimensions      [0 1 -1 0 0 0 0];

internalField   nonuniform List<vector> 
6400
(
(7.23972e-06 -7.2574e-06 0)
(2.9769e-05 -1.44338e-05 0)
(5.92406e-05 -1.41582e-05 0)
(8.05077e-05 -9.71562e-06 0)
(8.53095e-05 -3.40788e-06 0)
(7.04008e-05 3.55932e-06 0)
(3.46616e-05 1.05763e-05 0)
(-2.18739e-05 1.73218e-05 0)
(-9.84539e-05 2.36353e-05 0)
(-0.000193886 2.94362e-05 0)
(-0.000306725 3.46839e-05 0)
(-0.000435378 3.93648e-05 0)
(-0.000578163 4.34787e-05 0)
(-0.000733361 4.70301e-05 0)
(-0.000899247 5.00329e-05 0)
(-0.0010741 5.25018e-05 0)
(-0.00125624 5.44526e-05 0)
(-0.00144401 5.5905e-05 0)
(-0.00163581 5.68789e-05 0)
(-0.00183009 5.73935e-05 0)
(-0.00202535 5.74694e-05 0)
(-0.00222016 5.71272e-05 0)
(-0.00241314 5.63878e-05 0)
(-0.00260298 5.5271e-05 0)
(-0.00278845 5.37982e-05 0)
(-0.00296836 5.19891e-05 0)
(-0.00314159 4.98641e-05 0)
(-0.00330711 4.74435e-05 0)
(-0.00346393 4.4747e-05 0)
(-0.00361114 4.17946e-05 0)
(-0.0037479 3.86061e-05 0)
(-0.00387344 3.52018e-05 0)
(-0.00398704 3.16014e-05 0)
(-0.00408806 2.7825e-05 0)
(-0.00417595 2.38928e-05 0)
(-0.0042502 1.98253e-05 0)
(-0.00431038 1.56429e-05 0)
(-0.00435615 1.1367e-05 0)
(-0.00438722 7.01915e-06 0)
(-0.00440338 2.6211e-06 0)
(-0.00440452 -1.80493e-06 0)
(-0.00439058 -6.23623e-06 0)
(-0.00436159 -1.06496e-05 0)
(-0.00431766 -1.50213e-05 0)
(-0.00425898 -1.93274e-05 0)
(-0.00418582 -2.3543e-05 0)
(-0.00409855 -2.76428e-05 0)
(-0.00399762 -3.16015e-05 0)
(-0.00388355 -3.53935e-05 0)
(-0.00375697 -3.89929e-05 0)
(-0.00361859 -4.23735e-05 0)
(-0.00346919 -4.55094e-05 0)
(-0.00330966 -4.83743e-05 0)
(-0.00314097 -5.09424e-05 0)
(-0.00296417 -5.3188e-05 0)
(-0.0027804 -5.50861e-05 0)
(-0.00259087 -5.6612e-05 0)
(-0.00239688 -5.77421e-05 0)
(-0.0021998 -5.84536e-05 0)
(-0.00200105 -5.8725e-05 0)
(-0.00180215 -5.8536e-05 0)
(-0.00160466 -5.78675e-05 0)
(-0.00141018 -5.6702e-05 0)
(-0.00122037 -5.5024e-05 0)
(-0.00103693 -5.28199e-05 0)
(-0.000861579 -5.00788e-05 0)
(-0.00069604 -4.67925e-05 0)
(-0.000542045 -4.29564e-05 0)
(-0.000401302 -3.85703e-05 0)
(-0.000275473 -3.36398e-05 0)
(-0.000166142 -2.81801e-05 0)
(-7.47697e-05 -2.22205e-05 0)
(-2.62302e-06 -1.58147e-05 0)
(4.93285e-05 -9.06024e-06 0)
(8.05899e-05 -2.13635e-06 0)
(9.14243e-05 4.62316e-06 0)
(8.32747e-05 1.05939e-05 0)
(5.97025e-05 1.45809e-05 0)
(2.92106e-05 1.43411e-05 0)
(6.86956e-06 6.86748e-06 0)
(1.44421e-05 -2.98062e-05 0)
(5.14899e-05 -5.14314e-05 0)
(8.96743e-05 -4.3988e-05 0)
(0.000103309 -1.90059e-05 0)
(7.66951e-05 1.53986e-05 0)
(1.98844e-06 5.41982e-05 0)
(-0.000124503 9.43157e-05 0)
(-0.000303695 0.000133863 0)
(-0.000534536 0.000171684 0)
(-0.000814665 0.000207063 0)
(-0.00114084 0.000239561 0)
(-0.00150925 0.000268918 0)
(-0.00191572 0.000294991 0)
(-0.00235584 0.000317711 0)
(-0.0028251 0.000337071 0)
(-0.00331894 0.000353097 0)
(-0.00383283 0.000365846 0)
(-0.00436227 0.000375394 0)
(-0.00490288 0.000381835 0)
(-0.00545037 0.000385271 0)
(-0.0060006 0.000385813 0)
(-0.00654958 0.00038358 0)
(-0.00709344 0.000378693 0)
(-0.00762853 0.000371279 0)
(-0.00815133 0.000361464 0)
(-0.00865852 0.00034938 0)
(-0.00914694 0.000335156 0)
(-0.00961365 0.000318926 0)
(-0.0100558 0.000300822 0)
(-0.010471 0.000280977 0)
(-0.0108566 0.000259527 0)
(-0.0112105 0.000236607 0)
(-0.0115308 0.000212354 0)
(-0.0118155 0.000186905 0)
(-0.0120632 0.0001604 0)
(-0.0122723 0.000132981 0)
(-0.0124417 0.00010479 0)
(-0.0125703 7.5973e-05 0)
(-0.0126575 4.66777e-05 0)
(-0.0127026 1.70548e-05 0)
(-0.0127052 -1.27425e-05 0)
(-0.0126654 -4.25583e-05 0)
(-0.012583 -7.22337e-05 0)
(-0.0124586 -0.000101607 0)
(-0.0122926 -0.000130515 0)
(-0.0120858 -0.00015879 0)
(-0.0118393 -0.000186263 0)
(-0.0115544 -0.000212763 0)
(-0.0112325 -0.00023812 0)
(-0.0108755 -0.00026216 0)
(-0.0104854 -0.00028471 0)
(-0.0100643 -0.000305599 0)
(-0.00961494 -0.000324655 0)
(-0.00913989 -0.000341709 0)
(-0.00864216 -0.000356598 0)
(-0.00812494 -0.00036916 0)
(-0.00759165 -0.00037924 0)
(-0.0070459 -0.000386689 0)
(-0.00649152 -0.000391367 0)
(-0.00593252 -0.000393144 0)
(-0.00537304 -0.0003919 0)
(-0.00481743 -0.000387528 0)
(-0.0042701 -0.000379935 0)
(-0.00373561 -0.000369047 0)
(-0.00321857 -0.000354808 0)
(-0.00272362 -0.000337186 0)
(-0.0022554 -0.000316179 0)
(-0.0018185 -0.00029182 0)
(-0.00141735 -0.000264186 0)
(-0.00105622 -0.000233415 0)
(-0.000739022 -0.000199728 0)
(-0.000469232 -0.000163465 0)
(-0.00024964 -0.000125144 0)
(-8.20741e-05 -8.55527e-05 0)
(3.30348e-05 -4.59196e-05 0)
(9.72718e-05 -8.17933e-06 0)
(0.000115014 2.45847e-05 0)
(9.47231e-05 4.74258e-05 0)
(5.25553e-05 5.25093e-05 0)
(1.43368e-05 2.91856e-05 0)
(1.42724e-05 -5.93617e-05 0)
(4.44825e-05 -8.97442e-05 0)
(6.10856e-05 -6.02671e-05 0)
(3.53044e-05 6.93344e-06 0)
(-5.1205e-05 9.64466e-05 0)
(-0.000208648 0.000197623 0)
(-0.000442353 0.000303234 0)
(-0.000754014 0.000408451 0)
(-0.0011426 0.000510052 0)
(-0.0016051 0.000605894 0)
(-0.0021371 0.000694568 0)
(-0.00273321 0.000775157 0)
(-0.00338737 0.00084709 0)
(-0.00409309 0.000910051 0)
(-0.00484359 0.000963891 0)
(-0.00563198 0.0010086 0)
(-0.00645132 0.00104425 0)
(-0.0072947 0.001071 0)
(-0.00815533 0.00108907 0)
(-0.00902654 0.00109869 0)
(-0.00990184 0.00110015 0)
(-0.010775 0.00109376 0)
(-0.0116398 0.00107985 0)
(-0.0124907 0.00105875 0)
(-0.013322 0.00103081 0)
(-0.0141284 0.000996394 0)
(-0.0149049 0.000955867 0)
(-0.0156469 0.000909599 0)
(-0.01635 0.000857968 0)
(-0.0170099 0.000801354 0)
(-0.0176229 0.00074014 0)
(-0.0181855 0.000674716 0)
(-0.0186944 0.000605472 0)
(-0.0191469 0.000532807 0)
(-0.0195403 0.000457123 0)
(-0.0198723 0.000378826 0)
(-0.0201412 0.000298329 0)
(-0.0203453 0.000216053 0)
(-0.0204833 0.000132423 0)
(-0.0205544 4.78738e-05 0)
(-0.020558 -3.71548e-05 0)
(-0.020494 -0.000122214 0)
(-0.0203625 -0.000206847 0)
(-0.0201641 -0.00029059 0)
(-0.0198997 -0.000372975 0)
(-0.0195705 -0.000453524 0)
(-0.0191783 -0.000531756 0)
(-0.018725 -0.000607186 0)
(-0.0182132 -0.000679326 0)
(-0.0176457 -0.000747686 0)
(-0.0170256 -0.000811778 0)
(-0.0163566 -0.000871116 0)
(-0.0156426 -0.00092522 0)
(-0.014888 -0.000973618 0)
(-0.0140975 -0.00101585 0)
(-0.013276 -0.00105147 0)
(-0.0124291 -0.00108005 0)
(-0.0115624 -0.00110117 0)
(-0.010682 -0.00111447 0)
(-0.00979401 -0.00111959 0)
(-0.0089051 -0.0011162 0)
(-0.00802197 -0.00110404 0)
(-0.00715153 -0.00108288 0)
(-0.00630082 -0.00105254 0)
(-0.00547697 -0.00101292 0)
(-0.0046871 -0.000963978 0)
(-0.00393829 -0.000905779 0)
(-0.00323747 -0.000838498 0)
(-0.0025913 -0.000762457 0)
(-0.00200605 -0.000678167 0)
(-0.00148742 -0.000586391 0)
(-0.00104028 -0.000488244 0)
(-0.000668412 -0.000385332 0)
(-0.000374067 -0.00027997 0)
(-0.000157423 -0.00017552 0)
(-1.58595e-05 -7.68958e-05 0)
(5.68621e-05 8.71087e-06 0)
(7.17562e-05 7.08783e-05 0)
(4.78938e-05 9.47864e-05 0)
(1.46591e-05 5.97369e-05 0)
(1.00351e-05 -8.10868e-05 0)
(2.03172e-05 -0.000104139 0)
(-4.48105e-06 -3.48453e-05 0)
(-9.10946e-05 9.3995e-05 0)
(-0.000257651 0.000259631 0)
(-0.000515088 0.000445525 0)
(-0.0008693 0.000639826 0)
(-0.00132224 0.000834182 0)
(-0.00187274 0.00102274 0)
(-0.00251728 0.00120144 0)
(-0.00325057 0.00136746 0)
(-0.00406601 0.0015189 0)
(-0.00495608 0.0016545 0)
(-0.00591259 0.00177349 0)
(-0.00692697 0.00187547 0)
(-0.00799035 0.00196029 0)
(-0.00909379 0.00202799 0)
(-0.0102283 0.0020788 0)
(-0.0113851 0.00211304 0)
(-0.0125553 0.00213114 0)
(-0.0137304 0.00213358 0)
(-0.0149022 0.00212094 0)
(-0.0160626 0.00209378 0)
(-0.0172039 0.00205276 0)
(-0.0183188 0.00199852 0)
(-0.0194002 0.00193174 0)
(-0.0204414 0.00185313 0)
(-0.0214362 0.00176338 0)
(-0.0223786 0.00166323 0)
(-0.0232632 0.00155341 0)
(-0.0240848 0.00143466 0)
(-0.0248387 0.00130774 0)
(-0.0255207 0.0011734 0)
(-0.0261269 0.00103242 0)
(-0.0266538 0.000885584 0)
(-0.0270984 0.000733686 0)
(-0.0274583 0.000577532 0)
(-0.0277312 0.000417939 0)
(-0.0279156 0.00025574 0)
(-0.0280103 9.17791e-05 0)
(-0.0280145 -7.30839e-05 0)
(-0.0279281 -0.000237976 0)
(-0.0277513 -0.00040201 0)
(-0.0274848 -0.000564286 0)
(-0.0271298 -0.000723892 0)
(-0.0266882 -0.000879904 0)
(-0.0261622 -0.00103139 0)
(-0.0255545 -0.00117742 0)
(-0.0248684 -0.00131704 0)
(-0.0241078 -0.00144931 0)
(-0.0232768 -0.00157329 0)
(-0.0223804 -0.00168806 0)
(-0.0214238 -0.00179269 0)
(-0.0204128 -0.00188627 0)
(-0.0193537 -0.00196794 0)
(-0.0182533 -0.00203685 0)
(-0.0171186 -0.00209218 0)
(-0.0159572 -0.00213317 0)
(-0.0147771 -0.0021591 0)
(-0.0135867 -0.00216933 0)
(-0.0123944 -0.00216328 0)
(-0.0112093 -0.00214046 0)
(-0.0100403 -0.00210047 0)
(-0.00889662 -0.00204302 0)
(-0.00778761 -0.00196799 0)
(-0.00672248 -0.00187537 0)
(-0.00571036 -0.00176537 0)
(-0.00476012 -0.00163844 0)
(-0.00388024 -0.00149531 0)
(-0.0030786 -0.00133709 0)
(-0.00236227 -0.00116538 0)
(-0.00173723 -0.000982445 0)
(-0.00120801 -0.00079142 0)
(-0.000777201 -0.000596679 0)
(-0.000444945 -0.000404294 0)
(-0.00020819 -0.000222729 0)
(-5.99404e-05 -6.37628e-05 0)
(1.17366e-05 5.64341e-05 0)
(2.6019e-05 0.000115946 0)
(1.08836e-05 8.37347e-05 0)
(4.00041e-06 -8.68847e-05 0)
(-1.30898e-05 -7.91817e-05 0)
(-9.21403e-05 5.03873e-05 0)
(-0.000254205 0.000260111 0)
(-0.000515106 0.000520608 0)
(-0.000885276 0.000809842 0)
(-0.00137029 0.00111143 0)
(-0.00197174 0.00141338 0)
(-0.00268807 0.001707 0)
(-0.00351516 0.00198601 0)
(-0.0044469 0.00224593 0)
(-0.0054757 0.0024836 0)
(-0.0065928 0.00269688 0)
(-0.00778865 0.00288439 0)
(-0.00905313 0.00304529 0)
(-0.0103758 0.00317923 0)
(-0.0117459 0.00328615 0)
(-0.0131527 0.0033663 0)
(-0.0145857 0.0034201 0)
(-0.0160341 0.00344816 0)
(-0.0174878 0.00345119 0)
(-0.0189365 0.00343005 0)
(-0.0203707 0.00338563 0)
(-0.0217808 0.00331891 0)
(-0.0231578 0.00323092 0)
(-0.0244932 0.00312274 0)
(-0.0257788 0.00299546 0)
(-0.0270068 0.00285022 0)
(-0.0281701 0.00268818 0)
(-0.0292617 0.00251052 0)
(-0.0302755 0.00231843 0)
(-0.0312057 0.00211313 0)
(-0.0320469 0.00189585 0)
(-0.0327945 0.00166785 0)
(-0.0334442 0.00143038 0)
(-0.0339924 0.00118475 0)
(-0.0344359 0.000932256 0)
(-0.0347721 0.000674227 0)
(-0.034999 0.000412012 0)
(-0.0351152 0.000146983 0)
(-0.0351198 -0.000119468 0)
(-0.0350126 -0.000385928 0)
(-0.0347938 -0.000650961 0)
(-0.0344645 -0.000913111 0)
(-0.0340261 -0.00117091 0)
(-0.0334809 -0.00142285 0)
(-0.0328317 -0.00166746 0)
(-0.0320817 -0.0019032 0)
(-0.0312352 -0.00212857 0)
(-0.0302967 -0.00234206 0)
(-0.0292716 -0.00254216 0)
(-0.0281658 -0.00272738 0)
(-0.0269857 -0.00289624 0)
(-0.0257385 -0.00304732 0)
(-0.0244319 -0.00317922 0)
(-0.023074 -0.00329059 0)
(-0.0216736 -0.00338016 0)
(-0.02024 -0.00344672 0)
(-0.0187828 -0.00348916 0)
(-0.0173122 -0.00350648 0)
(-0.0158386 -0.0034978 0)
(-0.0143726 -0.00346237 0)
(-0.0129254 -0.00339962 0)
(-0.0115079 -0.00330918 0)
(-0.0101313 -0.00319089 0)
(-0.00880662 -0.00304487 0)
(-0.00754479 -0.00287156 0)
(-0.00635631 -0.00267179 0)
(-0.00525115 -0.00244687 0)
(-0.00423856 -0.00219869 0)
(-0.00332676 -0.00192995 0)
(-0.00252267 -0.00164431 0)
(-0.00183152 -0.00134674 0)
(-0.00125638 -0.00104396 0)
(-0.00079767 -0.000744989 0)
(-0.000452528 -0.000461975 0)
(-0.000214118 -0.00021121 0)
(-7.07969e-05 -1.42864e-05 0)
(-5.32136e-06 0.000100388 0)
(5.24083e-06 9.2975e-05 0)
(-2.68238e-06 -7.35605e-05 0)
(-5.09897e-05 -6.94955e-06 0)
(-0.000191993 0.00020595 0)
(-0.000438898 0.000516805 0)
(-0.000803795 0.000890702 0)
(-0.00129568 0.00130074 0)
(-0.00191903 0.00172635 0)
(-0.00267457 0.00215206 0)
(-0.00355995 0.00256627 0)
(-0.00457029 0.0029604 0)
(-0.00569866 0.00332814 0)
(-0.00693647 0.00366493 0)
(-0.0082739 0.00396759 0)
(-0.00970018 0.00423397 0)
(-0.0112039 0.00446273 0)
(-0.0127731 0.00465317 0)
(-0.0143958 0.0048051 0)
(-0.0160595 0.00491873 0)
(-0.0177522 0.00499456 0)
(-0.0194616 0.00503336 0)
(-0.0211758 0.00503612 0)
(-0.0228832 0.00500395 0)
(-0.0245726 0.00493813 0)
(-0.026233 0.00484002 0)
(-0.0278539 0.00471107 0)
(-0.0294253 0.00455281 0)
(-0.0309377 0.00436682 0)
(-0.0323821 0.00415472 0)
(-0.03375 0.00391819 0)
(-0.0350335 0.00365893 0)
(-0.0362252 0.00337868 0)
(-0.0373185 0.0030792 0)
(-0.0383071 0.00276229 0)
(-0.0391855 0.00242977 0)
(-0.0399487 0.0020835 0)
(-0.0405925 0.00172535 0)
(-0.0411132 0.00135723 0)
(-0.0415078 0.00098108 0)
(-0.041774 0.000598872 0)
(-0.04191 0.000212605 0)
(-0.0419149 -0.00017569 0)
(-0.0417884 -0.00056395 0)
(-0.0415309 -0.000950084 0)
(-0.0411436 -0.00133197 0)
(-0.0406281 -0.00170747 0)
(-0.0399872 -0.00207442 0)
(-0.039224 -0.00243063 0)
(-0.0383426 -0.00277392 0)
(-0.0373477 -0.00310209 0)
(-0.0362448 -0.00341294 0)
(-0.03504 -0.00370432 0)
(-0.0337404 -0.00397406 0)
(-0.0323534 -0.00422005 0)
(-0.0308873 -0.00444022 0)
(-0.0293511 -0.00463257 0)
(-0.0277543 -0.00479519 0)
(-0.0261072 -0.00492625 0)
(-0.0244203 -0.00502405 0)
(-0.022705 -0.00508701 0)
(-0.020973 -0.00511373 0)
(-0.0192362 -0.00510299 0)
(-0.0175071 -0.00505378 0)
(-0.0157982 -0.00496536 0)
(-0.0141224 -0.00483727 0)
(-0.0124924 -0.00466938 0)
(-0.0109207 -0.00446198 0)
(-0.00941986 -0.00421582 0)
(-0.00800171 -0.00393222 0)
(-0.00667758 -0.0036132 0)
(-0.00545791 -0.00326161 0)
(-0.00435196 -0.00288139 0)
(-0.00336757 -0.00247779 0)
(-0.00251074 -0.00205779 0)
(-0.00178521 -0.00163057 0)
(-0.00119207 -0.00120815 0)
(-0.000729185 -0.000806268 0)
(-0.000390638 -0.000445414 0)
(-0.000166006 -0.000152029 0)
(-4.13961e-05 3.99754e-05 0)
(-1.11337e-06 8.4111e-05 0)
(-9.45616e-06 -3.98761e-05 0)
(-9.06263e-05 0.000116726 0)
(-0.000297651 0.00043808 0)
(-0.000634881 0.000871372 0)
(-0.00110981 0.00137736 0)
(-0.0017293 0.00192508 0)
(-0.00249615 0.00249028 0)
(-0.00340971 0.00305426 0)
(-0.00446653 0.00360268 0)
(-0.00566072 0.00412465 0)
(-0.00698439 0.00461201 0)
(-0.00842796 0.00505873 0)
(-0.00998057 0.00546047 0)
(-0.0116303 0.00581423 0)
(-0.0133647 0.00611807 0)
(-0.0151704 0.00637092 0)
(-0.0170341 0.00657234 0)
(-0.0189421 0.00672248 0)
(-0.0208809 0.00682192 0)
(-0.0228368 0.00687157 0)
(-0.0247967 0.00687266 0)
(-0.0267475 0.00682663 0)
(-0.0286765 0.00673513 0)
(-0.0305714 0.00659994 0)
(-0.0324205 0.006423 0)
(-0.0342126 0.00620632 0)
(-0.0359368 0.00595202 0)
(-0.037583 0.0056623 0)
(-0.0391418 0.00533939 0)
(-0.040604 0.0049856 0)
(-0.0419615 0.00460329 0)
(-0.0432065 0.00419484 0)
(-0.0443322 0.00376271 0)
(-0.0453322 0.00330937 0)
(-0.046201 0.00283734 0)
(-0.0469337 0.00234919 0)
(-0.0475262 0.0018475 0)
(-0.0479751 0.00133493 0)
(-0.0482778 0.000814164 0)
(-0.0484323 0.000287919 0)
(-0.0484375 -0.000241033 0)
(-0.0482932 -0.000769886 0)
(-0.0479999 -0.00129579 0)
(-0.0475587 -0.00181588 0)
(-0.0469717 -0.00232722 0)
(-0.046242 -0.00282689 0)
(-0.0453731 -0.00331192 0)
(-0.0443696 -0.00377935 0)
(-0.0432369 -0.00422621 0)
(-0.0419812 -0.00464953 0)
(-0.0406095 -0.00504638 0)
(-0.0391295 -0.00541386 0)
(-0.0375498 -0.00574911 0)
(-0.0358797 -0.00604937 0)
(-0.0341294 -0.00631195 0)
(-0.0323095 -0.00653427 0)
(-0.0304315 -0.00671392 0)
(-0.0285075 -0.00684862 0)
(-0.02655 -0.00693629 0)
(-0.024572 -0.0069751 0)
(-0.0225873 -0.00696346 0)
(-0.0206094 -0.00690009 0)
(-0.0186526 -0.00678406 0)
(-0.016731 -0.00661485 0)
(-0.0148588 -0.00639241 0)
(-0.01305 -0.00611722 0)
(-0.0113184 -0.00579043 0)
(-0.00967719 -0.00541393 0)
(-0.00813882 -0.00499056 0)
(-0.00671485 -0.00452422 0)
(-0.00541559 -0.00402021 0)
(-0.00424984 -0.00348547 0)
(-0.00322448 -0.00292905 0)
(-0.0023442 -0.00236259 0)
(-0.00161107 -0.00180101 0)
(-0.00102421 -0.00126337 0)
(-0.00057918 -0.000773952 0)
(-0.000267468 -0.000363295 0)
(-7.94101e-05 -6.96938e-05 0)
(-7.60463e-06 5.57763e-05 0)
(-1.606e-05 1.4422e-05 0)
(-0.00013044 0.000293661 0)
(-0.000405144 0.000750032 0)
(-0.000835406 0.00132797 0)
(-0.00142369 0.00198508 0)
(-0.00217425 0.00268713 0)
(-0.00308777 0.00340678 0)
(-0.00416185 0.00412247 0)
(-0.00539159 0.00481733 0)
(-0.00676991 0.00547832 0)
(-0.00828777 0.00609545 0)
(-0.00993454 0.00666119 0)
(-0.0116983 0.00717005 0)
(-0.0135661 0.00761813 0)
(-0.0155242 0.00800284 0)
(-0.0175583 0.00832264 0)
(-0.0196537 0.00857688 0)
(-0.0217957 0.00876558 0)
(-0.0239695 0.00888935 0)
(-0.0261602 0.00894928 0)
(-0.0283533 0.00894682 0)
(-0.0305345 0.00888375 0)
(-0.03269 0.0087621 0)
(-0.0348063 0.00858414 0)
(-0.0368705 0.00835229 0)
(-0.0388701 0.00806911 0)
(-0.0407934 0.00773732 0)
(-0.0426292 0.00735971 0)
(-0.0443668 0.00693916 0)
(-0.0459966 0.00647865 0)
(-0.0475092 0.00598122 0)
(-0.0488964 0.00544995 0)
(-0.0501503 0.00488802 0)
(-0.0512642 0.00429862 0)
(-0.0522317 0.00368504 0)
(-0.0530476 0.00305058 0)
(-0.0537072 0.00239863 0)
(-0.054207 0.00173262 0)
(-0.0545439 0.00105603 0)
(-0.0547158 0.000372384 0)
(-0.0547216 -0.000314714 0)
(-0.0545609 -0.00100163 0)
(-0.0542343 -0.00168467 0)
(-0.0537431 -0.00236011 0)
(-0.0530896 -0.00302418 0)
(-0.0522772 -0.00367308 0)
(-0.0513098 -0.00430299 0)
(-0.0501926 -0.00491006 0)
(-0.0489313 -0.00549048 0)
(-0.0475329 -0.00604042 0)
(-0.0460051 -0.00655609 0)
(-0.0443563 -0.00703378 0)
(-0.0425962 -0.00746982 0)
(-0.0407349 -0.00786065 0)
(-0.0387835 -0.00820283 0)
(-0.0367538 -0.00849309 0)
(-0.0346584 -0.00872833 0)
(-0.0325106 -0.00890567 0)
(-0.0303241 -0.0090225 0)
(-0.0281132 -0.00907649 0)
(-0.0258928 -0.00906568 0)
(-0.023678 -0.0089885 0)
(-0.0214842 -0.00884384 0)
(-0.0193269 -0.00863113 0)
(-0.0172216 -0.00835041 0)
(-0.0151835 -0.00800242 0)
(-0.0132275 -0.00758874 0)
(-0.0113682 -0.00711191 0)
(-0.00961917 -0.00657561 0)
(-0.00799297 -0.00598489 0)
(-0.00650103 -0.00534645 0)
(-0.00515315 -0.00466894 0)
(-0.00395733 -0.00396344 0)
(-0.00291938 -0.00324398 0)
(-0.00204271 -0.00252818 0)
(-0.00132806 -0.00183811 0)
(-0.00077292 -0.00120128 0)
(-0.000371147 -0.000651599 0)
(-0.000117758 -0.000230641 0)
(-1.39571e-05 7.61769e-06 0)
(-2.23851e-05 8.90332e-05 0)
(-0.000169585 0.000524142 0)
(-0.000512091 0.00114296 0)
(-0.00103619 0.00188849 0)
(-0.00173917 0.00271614 0)
(-0.00262242 0.00358924 0)
(-0.00368422 0.00447789 0)
(-0.00492008 0.0053581 0)
(-0.00632343 0.00621078 0)
(-0.00788574 0.00702088 0)
(-0.00959672 0.00777672 0)
(-0.0114446 0.00846934 0)
(-0.0134162 0.00909209 0)
(-0.0154976 0.00964017 0)
(-0.017674 0.0101103 0)
(-0.0199299 0.0105005 0)
(-0.0222497 0.0108099 0)
(-0.0246173 0.0110383 0)
(-0.0270169 0.0111864 0)
(-0.0294326 0.0112554 0)
(-0.0318486 0.0112471 0)
(-0.0342497 0.0111634 0)
(-0.0366207 0.011007 0)
(-0.0389473 0.0107805 0)
(-0.0412154 0.0104869 0)
(-0.0434117 0.0101293 0)
(-0.0455232 0.00971112 0)
(-0.047538 0.00923578 0)
(-0.0494446 0.00870686 0)
(-0.0512323 0.00812805 0)
(-0.0528913 0.00750314 0)
(-0.0544123 0.00683597 0)
(-0.055787 0.00613051 0)
(-0.0570079 0.00539075 0)
(-0.0580684 0.00462079 0)
(-0.0589626 0.00382478 0)
(-0.0596856 0.00300693 0)
(-0.0602333 0.00217155 0)
(-0.0606026 0.00132299 0)
(-0.0607913 0.000465672 0)
(-0.0607979 -0.000395915 0)
(-0.0606222 -0.00125722 0)
(-0.0602647 -0.00211364 0)
(-0.059727 -0.0029605 0)
(-0.0590115 -0.00379311 0)
(-0.0581218 -0.00460673 0)
(-0.0570623 -0.00539657 0)
(-0.0558384 -0.00615788 0)
(-0.0544566 -0.00688588 0)
(-0.0529243 -0.00757582 0)
(-0.0512497 -0.008223 0)
(-0.0494422 -0.00882278 0)
(-0.0475121 -0.00937063 0)
(-0.0454703 -0.00986215 0)
(-0.0433289 -0.0102931 0)
(-0.0411007 -0.0106594 0)
(-0.0387992 -0.0109572 0)
(-0.0364387 -0.0111831 0)
(-0.0340341 -0.0113337 0)
(-0.0316009 -0.0114064 0)
(-0.0291551 -0.0113987 0)
(-0.0267129 -0.0113088 0)
(-0.0242909 -0.0111353 0)
(-0.0219059 -0.0108776 0)
(-0.0195744 -0.010536 0)
(-0.017313 -0.0101113 0)
(-0.0151378 -0.00960572 0)
(-0.0130642 -0.00902239 0)
(-0.0111072 -0.00836589 0)
(-0.00928032 -0.00764242 0)
(-0.00759621 -0.00686008 0)
(-0.00606582 -0.0060292 0)
(-0.00469836 -0.00516283 0)
(-0.00350103 -0.00427719 0)
(-0.00247883 -0.00339238 0)
(-0.0016344 -0.0025331 0)
(-0.0009675 -0.00172956 0)
(-0.000474603 -0.00101833 0)
(-0.000155559 -0.000443323 0)
(-2.00509e-05 -6.01367e-05 0)
(-2.83979e-05 0.000183383 0)
(-0.000207636 0.000807539 0)
(-0.000617136 0.00161665 0)
(-0.00123461 0.0025532 0)
(-0.00205226 0.00357123 0)
(-0.00306848 0.00463227 0)
(-0.00427893 0.00570442 0)
(-0.00567686 0.00676168 0)
(-0.00725381 0.00778302 0)
(-0.00899963 0.00875165 0)
(-0.0109026 0.00965431 0)
(-0.0129496 0.0104807 0)
(-0.0151265 0.0112232 0)
(-0.017418 0.011876 0)
(-0.0198082 0.0124352 0)
(-0.0222807 0.0128984 0)
(-0.0248187 0.0132644 0)
(-0.0274052 0.0135329 0)
(-0.0300233 0.0137046 0)
(-0.0326559 0.013781 0)
(-0.0352864 0.0137639 0)
(-0.0378984 0.0136559 0)
(-0.040476 0.0134598 0)
(-0.0430036 0.0131789 0)
(-0.0454664 0.0128167 0)
(-0.04785 0.0123769 0)
(-0.0501407 0.0118637 0)
(-0.0523257 0.0112811 0)
(-0.0543928 0.0106335 0)
(-0.0563304 0.00992533 0)
(-0.058128 0.00916116 0)
(-0.0597759 0.0083457 0)
(-0.0612651 0.00748371 0)
(-0.0625876 0.00658007 0)
(-0.0637362 0.00563976 0)
(-0.0647047 0.00466781 0)
(-0.0654878 0.00366937 0)
(-0.0660812 0.00264965 0)
(-0.0664815 0.00161395 0)
(-0.0666863 0.000567655 0)
(-0.0666942 -0.000483783 0)
(-0.0665048 -0.00153483 0)
(-0.0661187 -0.00257989 0)
(-0.0655376 -0.00361331 0)
(-0.064764 -0.00462937 0)
(-0.0638019 -0.00562231 0)
(-0.0626558 -0.00658636 0)
(-0.0613317 -0.00751573 0)
(-0.0598363 -0.00840464 0)
(-0.0581776 -0.00924734 0)
(-0.0563644 -0.0100381 0)
(-0.0544067 -0.0107715 0)
(-0.0523154 -0.0114418 0)
(-0.0501023 -0.0120438 0)
(-0.0477803 -0.0125725 0)
(-0.0453629 -0.0130229 0)
(-0.0428646 -0.0133904 0)
(-0.0403007 -0.0136708 0)
(-0.0376871 -0.0138603 0)
(-0.0350402 -0.0139556 0)
(-0.0323771 -0.0139538 0)
(-0.0297151 -0.0138527 0)
(-0.027072 -0.0136509 0)
(-0.0244655 -0.0133477 0)
(-0.0219135 -0.0129433 0)
(-0.0194334 -0.0124391 0)
(-0.0170426 -0.0118376 0)
(-0.0147578 -0.0111426 0)
(-0.0125948 -0.0103596 0)
(-0.0105685 -0.00949587 0)
(-0.00869278 -0.00856098 0)
(-0.00697978 -0.0075668 0)
(-0.00544015 -0.00652821 0)
(-0.00408265 -0.00546348 0)
(-0.00291409 -0.00439487 0)
(-0.00193923 -0.00334936 0)
(-0.00116027 -0.00235938 0)
(-0.00057644 -0.00146351 0)
(-0.000192365 -0.000707262 0)
(-2.58461e-05 -0.000146964 0)
(-3.41034e-05 0.000296777 0)
(-0.000244418 0.00114272 0)
(-0.000719576 0.00217005 0)
(-0.0014292 0.00332135 0)
(-0.00236057 0.00454992 0)
(-0.0035091 0.00581602 0)
(-0.0048677 0.00708624 0)
(-0.00642726 0.00833297 0)
(-0.00817725 0.00953356 0)
(-0.0101058 0.0106697 0)
(-0.0121995 0.0117267 0)
(-0.014444 0.0126933 0)
(-0.0168238 0.0135605 0)
(-0.0193224 0.0143219 0)
(-0.0219229 0.0149731 0)
(-0.0246078 0.0155111 0)
(-0.0273591 0.0159345 0)
(-0.030159 0.0162429 0)
(-0.0329894 0.0164371 0)
(-0.0358325 0.0165186 0)
(-0.0386705 0.0164896 0)
(-0.0414863 0.0163531 0)
(-0.0442628 0.0161122 0)
(-0.0469839 0.0157709 0)
(-0.0496336 0.0153333 0)
(-0.0521968 0.0148037 0)
(-0.0546592 0.0141869 0)
(-0.057007 0.0134878 0)
(-0.0592273 0.0127115 0)
(-0.0613081 0.0118634 0)
(-0.0632382 0.0109487 0)
(-0.0650071 0.00997306 0)
(-0.0666054 0.00894218 0)
(-0.0680247 0.00786183 0)
(-0.0692574 0.00673791 0)
(-0.0702969 0.00557642 0)
(-0.0711376 0.00438347 0)
(-0.0717748 0.00316527 0)
(-0.0722051 0.00192811 0)
(-0.0724258 0.000678384 0)
(-0.0724355 -0.000577415 0)
(-0.0722338 -0.00183272 0)
(-0.0718212 -0.00308088 0)
(-0.0711995 -0.00431517 0)
(-0.0703715 -0.0055288 0)
(-0.0693411 -0.00671497 0)
(-0.0681134 -0.0078668 0)
(-0.0666945 -0.00897743 0)
(-0.0650916 -0.01004 0)
(-0.0633131 -0.0110477 0)
(-0.0613682 -0.0119939 0)
(-0.0592677 -0.0128718 0)
(-0.0570228 -0.013675 0)
(-0.0546462 -0.0143973 0)
(-0.0521513 -0.0150325 0)
(-0.0495526 -0.015575 0)
(-0.0468653 -0.0160194 0)
(-0.0441056 -0.0163607 0)
(-0.0412902 -0.0165943 0)
(-0.0384366 -0.0167165 0)
(-0.0355628 -0.0167238 0)
(-0.0326872 -0.0166139 0)
(-0.0298284 -0.0163849 0)
(-0.0270053 -0.0160362 0)
(-0.0242369 -0.0155681 0)
(-0.0215418 -0.0149822 0)
(-0.0189383 -0.0142814 0)
(-0.0164443 -0.0134703 0)
(-0.0140769 -0.0125552 0)
(-0.0118522 -0.0115444 0)
(-0.00978528 -0.0104489 0)
(-0.00788982 -0.00928184 0)
(-0.00617795 -0.00805993 0)
(-0.00466018 -0.00680322 0)
(-0.00334524 -0.00553589 0)
(-0.0022402 -0.00428683 0)
(-0.00134976 -0.00309027 0)
(-0.000675945 -0.0019863 0)
(-0.000227989 -0.00102147 0)
(-3.13433e-05 -0.000252215 0)
(-3.95226e-05 0.000428499 0)
(-0.000279899 0.00152833 0)
(-0.000819128 0.00280164 0)
(-0.00161925 0.00419156 0)
(-0.00266284 0.00565104 0)
(-0.00394239 0.00713954 0)
(-0.00544807 0.00862256 0)
(-0.00716828 0.0100712 0)
(-0.00909035 0.0114615 0)
(-0.0112005 0.0127739 0)
(-0.0134837 0.0139926 0)
(-0.0159241 0.015105 0)
(-0.0185047 0.0161016 0)
(-0.0212081 0.0169751 0)
(-0.0240159 0.0177206 0)
(-0.0269097 0.0183346 0)
(-0.0298704 0.0188156 0)
(-0.0328792 0.0191632 0)
(-0.0359171 0.0193782 0)
(-0.0389653 0.0194622 0)
(-0.0420053 0.0194178 0)
(-0.0450188 0.0192483 0)
(-0.0479882 0.0189574 0)
(-0.0508963 0.0185496 0)
(-0.0537265 0.0180297 0)
(-0.056463 0.0174026 0)
(-0.0590907 0.0166739 0)
(-0.0615952 0.0158493 0)
(-0.0639629 0.0149347 0)
(-0.0661812 0.0139362 0)
(-0.0682384 0.0128601 0)
(-0.0701235 0.011713 0)
(-0.0718266 0.0105014 0)
(-0.0733389 0.00923209 0)
(-0.0746524 0.00791194 0)
(-0.0757602 0.00654797 0)
(-0.0766563 0.00514731 0)
(-0.077336 0.00371718 0)
(-0.0777956 0.00226495 0)
(-0.0780322 0.000798083 0)
(-0.0780443 -0.000675859 0)
(-0.0778315 -0.00214921 0)
(-0.0773943 -0.0036142 0)
(-0.0767347 -0.00506301 0)
(-0.0758555 -0.00648771 0)
(-0.0747608 -0.00788037 0)
(-0.0734558 -0.00923298 0)
(-0.071947 -0.0105376 0)
(-0.0702419 -0.0117861 0)
(-0.0683492 -0.0129707 0)
(-0.0662788 -0.0140836 0)
(-0.0640415 -0.0151169 0)
(-0.0616495 -0.0160633 0)
(-0.0591159 -0.0169154 0)
(-0.0564548 -0.0176661 0)
(-0.0536813 -0.0183089 0)
(-0.0508114 -0.0188374 0)
(-0.0478621 -0.019246 0)
(-0.0448509 -0.0195293 0)
(-0.0417962 -0.019683 0)
(-0.0387168 -0.0197033 0)
(-0.0356322 -0.0195872 0)
(-0.0325621 -0.0193328 0)
(-0.0295262 -0.0189392 0)
(-0.0265445 -0.018407 0)
(-0.0236369 -0.0177378 0)
(-0.0208228 -0.0169351 0)
(-0.0181212 -0.016004 0)
(-0.0155505 -0.0149517 0)
(-0.0131282 -0.0137875 0)
(-0.0108706 -0.0125234 0)
(-0.00879293 -0.0111741 0)
(-0.00690908 -0.00975782 0)
(-0.00523134 -0.00829616 0)
(-0.00377055 -0.00681498 0)
(-0.0025361 -0.00534475 0)
(-0.00153528 -0.00392116 0)
(-0.000772847 -0.00258544 0)
(-0.0002624 -0.00138471 0)
(-3.65632e-05 -0.000375216 0)
(-4.46843e-05 0.000577857 0)
(-0.000314131 0.00196292 0)
(-0.000915775 0.0035097 0)
(-0.00180454 0.00516207 0)
(-0.00295857 0.00687297 0)
(-0.0043675 0.00860141 0)
(-0.00601881 0.0103121 0)
(-0.00789837 0.0119752 0)
(-0.00999129 0.0135657 0)
(-0.0122818 0.0150631 0)
(-0.0147532 0.0164504 0)
(-0.0173879 0.0177143 0)
(-0.0201677 0.0188445 0)
(-0.0230737 0.0198331 0)
(-0.0260865 0.0206747 0)
(-0.0291863 0.0213656 0)
(-0.0323532 0.0219041 0)
(-0.0355673 0.0222897 0)
(-0.0388088 0.0225232 0)
(-0.0420578 0.0226068 0)
(-0.045295 0.0225431 0)
(-0.0485014 0.022336 0)
(-0.0516586 0.0219898 0)
(-0.0547486 0.0215093 0)
(-0.0577541 0.0209001 0)
(-0.0606586 0.0201679 0)
(-0.0634464 0.0193191 0)
(-0.0661024 0.01836 0)
(-0.0686126 0.0172976 0)
(-0.0709638 0.0161388 0)
(-0.0731436 0.0148909 0)
(-0.0751409 0.0135613 0)
(-0.0769453 0.0121576 0)
(-0.0785474 0.0106876 0)
(-0.079939 0.00915918 0)
(-0.081113 0.00758036 0)
(-0.082063 0.00595936 0)
(-0.0827842 0.0043045 0)
(-0.0832725 0.00262423 0)
(-0.0835251 0.00092713 0)
(-0.0835404 -0.000778104 0)
(-0.0833179 -0.00248266 0)
(-0.0828582 -0.00417764 0)
(-0.082163 -0.00585402 0)
(-0.0812356 -0.00750273 0)
(-0.08008 -0.00911464 0)
(-0.0787016 -0.0106806 0)
(-0.0771072 -0.0121914 0)
(-0.0753046 -0.0136378 0)
(-0.0733027 -0.0150109 0)
(-0.0711118 -0.0163016 0)
(-0.0687433 -0.0175011 0)
(-0.0662097 -0.0186007 0)
(-0.0635246 -0.0195921 0)
(-0.0607027 -0.0204672 0)
(-0.0577598 -0.0212184 0)
(-0.0547126 -0.0218387 0)
(-0.0515787 -0.0223212 0)
(-0.0483765 -0.0226603 0)
(-0.0451251 -0.0228505 0)
(-0.0418443 -0.0228878 0)
(-0.0385544 -0.0227687 0)
(-0.0352761 -0.022491 0)
(-0.0320301 -0.0220538 0)
(-0.0288376 -0.0214574 0)
(-0.0257193 -0.020704 0)
(-0.0226961 -0.0197971 0)
(-0.019788 -0.0187426 0)
(-0.0170147 -0.0175483 0)
(-0.0143952 -0.0162244 0)
(-0.0119473 -0.0147841 0)
(-0.00968782 -0.0132433 0)
(-0.00763237 -0.0116215 0)
(-0.00579522 -0.00994172 0)
(-0.00418936 -0.00823128 0)
(-0.00282657 -0.006522 0)
(-0.00171671 -0.0048507 0)
(-0.000867163 -0.00325943 0)
(-0.000295662 -0.0017957 0)
(-4.15364e-05 -0.000515317 0)
(-4.96208e-05 0.000744212 0)
(-0.000347215 0.00244508 0)
(-0.00100966 0.00429244 0)
(-0.00198519 0.006231 0)
(-0.00324777 0.00821391 0)
(-0.00478431 0.0102 0)
(-0.00657961 0.0121534 0)
(-0.00861703 0.0140436 0)
(-0.0108794 0.0158449 0)
(-0.013349 0.0175358 0)
(-0.0160072 0.0190987 0)
(-0.0188349 0.0205196 0)
(-0.0218123 0.0217874 0)
(-0.0249192 0.0228939 0)
(-0.0281348 0.0238331 0)
(-0.0314384 0.0246014 0)
(-0.0348089 0.0251968 0)
(-0.0382255 0.0256188 0)
(-0.0416672 0.0258686 0)
(-0.0451135 0.0259484 0)
(-0.0485443 0.0258615 0)
(-0.0519397 0.0256119 0)
(-0.0552804 0.0252046 0)
(-0.058548 0.0246452 0)
(-0.0617245 0.0239397 0)
(-0.0647927 0.0230949 0)
(-0.0677362 0.0221177 0)
(-0.0705396 0.0210155 0)
(-0.0731882 0.0197961 0)
(-0.0756684 0.0184673 0)
(-0.0779674 0.0170373 0)
(-0.0800735 0.0155146 0)
(-0.0819762 0.0139079 0)
(-0.0836656 0.0122259 0)
(-0.0851332 0.0104775 0)
(-0.0863716 0.00867197 0)
(-0.0873744 0.00681854 0)
(-0.0881363 0.00492666 0)
(-0.0886533 0.00300592 0)
(-0.0889223 0.00106605 0)
(-0.0889416 -0.00088308 0)
(-0.0887107 -0.00283149 0)
(-0.0882302 -0.00476906 0)
(-0.0875019 -0.0066856 0)
(-0.086529 -0.00857079 0)
(-0.0853156 -0.0104143 0)
(-0.0838675 -0.0122057 0)
(-0.0821914 -0.0139346 0)
(-0.0802953 -0.0155907 0)
(-0.0781886 -0.0171635 0)
(-0.0758818 -0.018643 0)
(-0.0733866 -0.0200191 0)