/*--------------------------------*- C++ -*----------------------------------*\
  =========                 |
  \\      /  F ield         | OpenFOAM: The Open Source CFD Toolbox
   \\    /   O peration     | Website:  https://openfoam.org
    \\  /    A nd           | Version:  7
     \\/     M anipulation  |
\*---------------------------------------------------------------------------*/
FoamFile
{
    version     2.0;
    format      ascii;
    class       volScalarField;
    location    "0.35";
    object      p;
}
// * * * * * * * * * * * * * * * * * * * * * * * * * * * * * * * * * * * * * //

dimensions      [0 2 -2 0 0 0 0];

internalField   nonuniform List<scalar> 
6400
(
5.6545e-06
2.19133e-05
-0.000484258
-0.00151716
-0.00295961
-0.00470136
-0.00664208
-0.00869225
-0.0107747
-0.0128239
-0.0147848
-0.0166113
-0.0182649
-0.0197139
-0.0209325
-0.0218999
-0.0226001
-0.0230208
-0.0231536
-0.022993
-0.0225365
-0.0217843
-0.0207389
-0.0194046
-0.0177881
-0.0158975
-0.0137428
-0.0113351
-0.00868709
-0.0058127
-0.00272691
0.000554261
0.00401381
0.00763387
0.0113958
0.0152802
0.0192671
0.0233358
0.0274653
0.0316341
0.0358203
0.0400019
0.0441567
0.0482623
0.0522966
0.0562374
0.060063
0.0637518
0.0672831
0.0706365
0.0737927
0.0767331
0.0794405
0.0818986
0.0840929
0.0860104
0.0876398
0.088972
0.09
0.0907191
0.0911276
0.0912262
0.0910191
0.0905135
0.0897205
0.0886552
0.0873368
0.0857896
0.0840429
0.082132
0.0800986
0.0779918
0.0758692
0.0737976
0.0718549
0.0701293
0.068718
0.0677252
0.0672575
0.0672954
-2.20421e-06
1.14217e-05
-0.000442231
-0.00132563
-0.00253955
-0.00400478
-0.00564544
-0.00738916
-0.00917071
-0.0109328
-0.0126258
-0.0142072
-0.0156409
-0.0168966
-0.0179492
-0.0187784
-0.0193679
-0.0197053
-0.0197814
-0.0195901
-0.0191283
-0.0183951
-0.017392
-0.0161224
-0.0145919
-0.0128075
-0.010778
-0.00851353
-0.0060255
-0.00332661
-0.000430684
0.00264747
0.00589207
0.00928652
0.0128134
0.0164546
0.0201915
0.0240047
0.0278745
0.0317807
0.035703
0.0396206
0.0435127
0.0473586
0.0511373
0.0548284
0.0584116
0.0618668
0.0651748
0.0683167
0.0712747
0.0740318
0.0765722
0.0788811
0.0809453
0.0827533
0.084295
0.0855626
0.0865503
0.0872544
0.087674
0.0878108
0.0876695
0.0872578
0.0865871
0.0856724
0.0845325
0.083191
0.0816759
0.0800205
0.0782636
0.0764503
0.0746318
0.0728668
0.0712206
0.0697644
0.0685715
0.0677166
0.0672934
0.0673325
0.000504606
0.000466547
1.26263e-05
-0.000803335
-0.00189407
-0.00319629
-0.00464883
-0.00619159
-0.00776894
-0.00933086
-0.0108331
-0.0122369
-0.013509
-0.0146209
-0.015549
-0.0162736
-0.0167788
-0.0170523
-0.0170849
-0.0168702
-0.0164046
-0.0156867
-0.0147173
-0.0134993
-0.0120372
-0.0103375
-0.00840793
-0.00625779
-0.00389764
-0.0013392
0.00140467
0.00432014
0.00739244
0.010606
0.0139444
0.0173906
0.0209269
0.0245352
0.0281969
0.0318928
0.0356037
0.03931
0.0429922
0.0466304
0.0502053
0.0536973
0.0570873
0.0603566
0.063487
0.0664611
0.069262
0.0718739
0.0742822
0.0764732
0.0784349
0.0801565
0.0816292
0.0828459
0.0838016
0.0844934
0.084921
0.0850866
0.0849949
0.0846542
0.0840755
0.0832734
0.0822663
0.0810763
0.0797302
0.0782587
0.0766979
0.0750883
0.073476
0.071912
0.0704522
0.0691558
0.0680821
0.0672912
0.0668686
0.0668663
0.00153743
0.00135241
0.000828691
9.43796e-06
-0.00103866
-0.00226205
-0.00360897
-0.0050287
-0.00647362
-0.00790015
-0.0092691
-0.0105458
-0.0116998
-0.0127052
-0.0135396
-0.0141848
-0.0146255
-0.0148501
-0.0148494
-0.0146172
-0.0141496
-0.0134451
-0.012504
-0.0113288
-0.00992346
-0.00829383
-0.00644704
-0.00439168
-0.00213755
0.000304367
0.00292202
0.00570239
0.00863155
0.0116948
0.0148765
0.0181607
0.0215305
0.0249687
0.0284576
0.031979
0.0355147
0.039046
0.0425544
0.0460211
0.0494275
0.0527552
0.0559861
0.0591025
0.0620871
0.0649233
0.0675955
0.0700886
0.0723889
0.0744837
0.0763616
0.0780128
0.0794291
0.0806041
0.0815332
0.0822141
0.0826467
0.0828335
0.0827793
0.0824921
0.0819826
0.0812648
0.0803562
0.0792775
0.0780534
0.0767126
0.0752876
0.0738153
0.0723363
0.0708954
0.0695405
0.0683222
0.067291
0.0664983
0.0660121
0.0658765
0.00298611
0.00257464
0.00192309
0.00105094
-4.59045e-06
-0.00119866
-0.00248739
-0.00382847
-0.00518165
-0.00650944
-0.00777764
-0.00895556
-0.0100161
-0.0109355
-0.0116937
-0.0122736
-0.0126612
-0.0128453
-0.0128174
-0.0125715
-0.0121037
-0.0114124
-0.0104978
-0.00936194
-0.00800851
-0.00644276
-0.00467132
-0.00270218
-0.000544492
0.00179143
0.00429425
0.0069517
0.00975062
0.0126771
0.0157163
0.0188531
0.0220715
0.025355
0.0286869
0.0320499
0.0354266
0.0387993
0.0421502
0.0454616
0.0487156
0.0518949
0.0549822
0.0579606
0.0608138
0.0635261
0.0660826
0.068469
0.0706724
0.0726809
0.0744838
0.0760718
0.0774373
0.0785743
0.0794788
0.0801488
0.0805842
0.0807876
0.0807638
0.0805202
0.0800672
0.0794179
0.0785885
0.0775983
0.0764701
0.0752298
0.0739068
0.0725339
0.0711469
0.0697845
0.0684877
0.0672989
0.0662615
0.0654192
0.0648129
0.0644652
0.00474851
0.00406021
0.0032377
0.00227237
0.00116803
-3.82406e-05
-0.0013092
-0.00261014
-0.0039075
-0.00516945
-0.00636653
-0.00747199
-0.00846191
-0.00931524
-0.0100138
-0.0105422
-0.0108876
-0.0110398
-0.0109909
-0.0107352
-0.0102692
-0.00959117
-0.00870136
-0.00760159
-0.00629528
-0.0047873
-0.00308385
-0.00119239
0.000878433
0.00311893
0.0055184
0.00806522
0.0107469
0.0135503
0.0164614
0.0194656
0.0225479
0.0256925
0.0288834
0.0321043
0.0353384
0.0385689
0.0417788
0.0449512
0.0480692
0.0511161
0.0540753
0.0569309
0.0596673
0.0622694
0.0647231
0.067015
0.0691326
0.0710646
0.0728009
0.0743327
0.0756529
0.0767559
0.0776378
0.0782967
0.0787327
0.0789482
0.0789477
0.0787383
0.0783294
0.0777333
0.076965
0.0760421
0.0749852
0.0738177
0.0725657
0.0712582
0.0699265
0.0686038
0.0673247
0.0661245
0.0650403
0.0641087
0.0633395
0.0627286
0.00673391
0.00574058
0.00471729
0.00362718
0.00244013
0.00118667
-0.000101383
-0.00139601
-0.00266966
-0.00389562
-0.00504886
-0.00610638
-0.00704737
-0.00785342
-0.00850842
-0.00899868
-0.00931274
-0.0094414
-0.00937754
-0.00911606
-0.00865374
-0.00798912
-0.00712243
-0.00605546
-0.00479146
-0.00333502
-0.00169202
0.000130468
0.00212429
0.00428023
0.00658816
0.00903704
0.011615
0.0143095
0.0171072
0.0199943
0.0229562
0.0259781
0.0290446
0.0321401
0.0352486
0.038354
0.04144
0.0444904
0.047489
0.0504198
0.0532671
0.0560153
0.0586498
0.061156
0.0635203
0.0657299
0.067773
0.0696385
0.071317
0.0728
0.0740805
0.0751533
0.0760146
0.0766625
0.077097
0.0773202
0.0773363
0.0771517
0.0767752
0.0762178
0.0754931
0.0746172
0.0736086
0.0724881
0.0712788
0.0700059
0.0686965
0.067379
0.0660825
0.064836
0.0636712
0.062619
0.0616568
0.0607536
0.00886304
0.00755122
0.00630807
0.00507002
0.00377419
0.00244585
0.00111242
-0.000203864
-0.00148076
-0.00269618
-0.00382913
-0.00486009
-0.00577129
-0.0065468
-0.00717266
-0.00763689
-0.00792946
-0.00804227
-0.0079691
-0.00770547
-0.00724865
-0.00659749
-0.00575236
-0.0047151
-0.00348887
-0.00207811
-0.000488464
0.00127332
0.00319946
0.00528117
0.00750877
0.00987175
0.0123588
0.0149579
0.0176563
0.0204408
0.0232975
0.0262121
0.02917
0.0321562
0.0351552
0.0381516
0.0411299
0.0440745
0.0469696
0.0498
0.0525505
0.0552063
0.0577529
0.0601766
0.0624642
0.0646034
0.0665826
0.0683914
0.0700203
0.0714613
0.0727076
0.073754
0.0745968
0.0752339
0.0756651
0.0758922
0.0759189
0.0757509
0.075396
0.0748643
0.0741679
0.0733211
0.0723404
0.0712443
0.0700531
0.0687885
0.0674737
0.0661329
0.0647901
0.063469
0.0621974
0.0610011
0.0598263
0.0586162
0.0110689
0.00943463
0.00796055
0.00655837
0.00513433
0.00370962
0.00230828
0.000947557
-0.000354942
-0.00158121
-0.0027139
-0.00373674
-0.00463474
-0.00539442
-0.00600386
-0.00645279
-0.00673265
-0.00683649
-0.00675902
-0.00649651
-0.00604676
-0.00540901
-0.00458389
-0.00357335
-0.00238057
-0.00100991
0.000533146
0.00224209
0.00410941
0.0061267
0.00828466
0.0105732
0.0129815
0.015498
0.0181106
0.0208065
0.0235723
0.0263945
0.0292588
0.0321509
0.0350559
0.0379589
0.0408449
0.0436989
0.0465058
0.0492507
0.051919
0.0544963
0.0569687
0.0593228
0.0615458
0.0636257
0.0655513
0.0673124
0.0688999
0.0703056
0.071523
0.0725468
0.0733732
0.074
0.0744267
0.0746545
0.0746866
0.0745279
0.0741854
0.073668
0.0729863
0.0721531
0.0711828
0.0700916
0.0688973
0.0676186
0.0662753
0.0648876
0.0634753
0.0620575
0.0606591
0.059302
0.0579028
0.0563808
0.0132955
0.0113407
0.00963027
0.00805313
0.0064867
0.00494921
0.00346216
0.00203859
0.000692093
-0.000562893
-0.00171228
-0.00274274
-0.00364188
-0.00439848
-0.0050026
-0.00544567
-0.00572053
-0.00582143
-0.00574404
-0.00548542
-0.00504398
-0.0044194
-0.00361264
-0.00262583
-0.00146225
-0.000126267
0.00137675
0.00304043
0.00485751
0.00681984
0.00891846
0.0111437
0.013485
0.0159313
0.018471
0.0210916
0.0237806
0.0265245
0.0293097
0.0321223
0.0349481
0.0377727
0.0405814
0.0433596
0.0460929
0.0487667
0.0513667
0.0538792
0.0562904
0.0585873
0.0607574
0.062789
0.064671
0.0663935
0.0679472
0.0693244
0.0705183
0.0715234
0.0723359
0.0729532
0.0733746
0.0736006
0.0736337
0.0734782
0.07314
0.0726269
0.0719483
0.0711152
0.0701402
0.0690374
0.067822
0.0665104
0.0651192
0.0636654
0.0621651
0.0606334
0.0590931
0.0575635
0.0559336
0.0541006
0.0154962
0.0132261
0.0112776
0.00951868
0.00779984
0.00613723
0.00455061
0.00304949
0.00164403
0.000345571
-0.000834696
-0.00188606
-0.00279853
-0.00356298
-0.00417134
-0.00461665
-0.00489314
-0.00499625
-0.00492263
-0.00467015
-0.00423784
-0.00362592
-0.0028357
-0.00186956
-0.00073095
0.00057573
0.00204511
0.00367094
0.0054461
0.00736266
0.00941192
0.0115845
0.0138702
0.0162583
0.0187376
0.0212961
0.0239214
0.0266008
0.029321
0.0320685
0.0348295
0.0375899
0.0403357
0.0430525
0.0457263
0.0483429
0.0508884
0.0533492
0.0557119
0.0579637
0.0600924
0.0620863
0.0639345
0.0656271
0.0671551
0.0685104
0.0696861
0.0706768
0.0714781
0.0720873
0.072503
0.0727254
0.0727563
0.0725989
0.0722583
0.0717411
0.0710555
0.070211
0.0692185
0.06809
0.0668387
0.0654783
0.0640232
0.0624877
0.0608844
0.0592256
0.0575326
0.0558229
0.0539597
0.05182
0.0176314
0.015053
0.0128673
0.0109227
0.00904461
0.00724784
0.00555103
0.00396077
0.00248434
0.00113036
-9.24742e-05
-0.00117581
-0.00211182
-0.00289332
-0.00351398
-0.00396837
-0.00425206
-0.00436164
-0.00429474
-0.00405005
-0.00362727
-0.00302715
-0.00225142
-0.00130276
-0.000184804
0.00109792
0.00254001
0.00413526
0.00587664
0.00775639
0.00976601
0.0118963
0.0141375
0.0164791
0.0189101
0.0214191
0.0239938
0.026622
0.0292908
0.0319869
0.034697
0.0374074
0.0401043
0.0427737
0.0454018
0.0479747
0.0504789
0.0529008
0.0552274
0.057446
0.0595445
0.0615112
0.0633354
0.065007
0.066517
0.0678571
0.0690205
0.0700011
0.0707945
0.0713973
0.0718079
0.0720256
0.0720517
0.0718885
0.0715401
0.0710119
0.0703109
0.0694453
0.0684244
0.0672585
0.0659587
0.0645368
0.0630048
0.0613748
0.059657
0.057861
0.0560073
0.0541126
0.0520159
0.0495754
0.0196679
0.0167887
0.0143681
0.012236
0.0101941
0.00825672
0.00644172
0.00475334
0.00319639
0.00177722
0.000502316
-0.000622069
-0.00159003
-0.00239618
-0.00303579
-0.00350488
-0.00380028
-0.0039197
-0.00386174
-0.00362588
-0.00321254
-0.00262299
-0.00185941
-0.000924826
0.000176882
0.00144103
0.00286216
0.00443403
0.00614967
0.00800142
0.00998093
0.0120792
0.0142867
0.0165931
0.0189877
0.0214594
0.0239963
0.0265863
0.0292169
0.0318752
0.034548
0.0372219
0.0398835
0.0425191
0.045115
0.0476576
0.0501334
0.0525291
0.0548318
0.0570289
0.0591082
0.0610582
0.062868
0.0645275
0.0660274
0.0673594
0.0685163
0.0694917
0.0702808
0.0708797
0.0712861
0.071499
0.0715187
0.0713468
0.0709863
0.0704417
0.0697186
0.0688239
0.0677656
0.0665526
0.0651941
0.0637001
0.0620808
0.0603461
0.0585046
0.0565638
0.0545438
0.0524612
0.0501322
0.0473974
0.0215769
0.0184045
0.0157521
0.0134319
0.0112236
0.00914102
0.00720193
0.00540855
0.00376367
0.00227165
0.000937068
-0.000235661
-0.00124237
-0.0020793
-0.00274321
-0.00323145
-0.00354207
-0.00367383
-0.00362628
-0.00339969
-0.00299516
-0.00241454
-0.00166046
-0.000736331
0.000353714
0.00160479
0.00301131
0.00456699
0.00626487
0.00809732
0.0100561
0.0121324
0.0143167
0.0165991
0.018969
0.0214154
0.0239268
0.0264913
0.0290967
0.0317303
0.0343791
0.0370301
0.0396698
0.0422849
0.0448618
0.0473871
0.0498473
0.0522293
0.0545202
0.0567073
0.0587786
0.0607223
0.0625275
0.0641838
0.0656818
0.0670129
0.0681695
0.069145
0.0699338
0.0705319
0.0709361
0.0711447
0.0711573
0.0709747
0.0705992
0.0700339
0.0692835
0.0683535
0.0672507
0.0659825
0.0645569
0.0629823
0.0612672
0.05942
0.0574477
0.0553562
0.053166
0.0508937
0.0483343
0.0453115
0.0233334
0.0198749
0.016994
0.0144863
0.0121101
0.00987925
0.00781178
0.00590828
0.00416977
0.00259897
0.00119877
-2.80428e-05
-0.00107885
-0.00195136
-0.00264369
-0.00315445
-0.00348283
-0.00362859
-0.00359218
-0.00337467
-0.00297781
-0.00240405
-0.00165648
-0.000738885
0.000344281
0.00158792
0.00298628
0.00453299
0.00622105
0.00804286
0.00999022
0.0120544
0.014226
0.0164953
0.0188519
0.0212849
0.023783
0.0263346
0.0289275
0.0315493
0.0341873
0.0368284
0.0394594
0.0420672
0.0446381
0.047159
0.0496163
0.051997
0.0542881
0.0564768
0.058551
0.060499
0.0623094
0.0639718
0.0654763
0.0668141
0.067977
0.0689582
0.0697516
0.0703524
0.0707569
0.0709627
0.0709686
0.0707745
0.0703819
0.0697929
0.0690112
0.0680412
0.0668882
0.0655587
0.0640593
0.0623972
0.0605797
0.0586138
0.0565051
0.0542586
0.0518954
0.0494324
0.0466446
0.0433395
0.0249154
0.0211772
0.0180712
0.0153769
0.012832
0.0104511
0.00825224
0.00623488
0.00439851
0.00274442
0.00127408
-1.11771e-05
-0.00111013
-0.00202181
-0.00274558
-0.00328122
-0.00362898
-0.00378959
-0.00376435
-0.00355509
-0.00316424
-0.0025948
-0.00185036
-0.000935096
0.000146214
0.00138822
0.002785
0.00433003
0.00601627
0.00783607
0.00978127
0.0118431
0.0140125
0.0162795
0.018634
0.0210653
0.0235622
0.0261131
0.0287062
0.031329
0.0339689
0.0366132
0.0392486
0.041862
0.04444
0.0469692
0.0494362
0.0518279
0.0541312
0.0563332
0.0584216
0.0603844
0.0622101
0.0638879
0.0654077
0.0667601
0.0679366
0.0689297
0.0697329
0.0703407
0.0707488
0.0709541
0.0709545
0.0707492
0.0703386
0.0697242
0.0689084
0.0678948
0.0666876
0.065292
0.0637137
0.0619587
0.0600334
0.0579438
0.0556946
0.0532897
0.0507512
0.0480971
0.0450827
0.0414999
0.0263029
0.0222905
0.0189626
0.0160828
0.0133694
0.0108371
0.00850497
0.00637111
0.00443383
0.00269319
0.00114941
-0.000197459
-0.00134745
-0.00230079
-0.00305801
-0.00361996
-0.00398786
-0.00416339
-0.00414864
-0.0039462
-0.00355915
-0.00299104
-0.00224596
-0.0013285
-0.000243759
0.00100264
0.00240455
0.00395533
0.00564779
0.00747427
0.00942655
0.0114959
0.0136733
0.0159488
0.0183125
0.0207536
0.0232611
0.0258236
0.0284292
0.0310656
0.0337204
0.0363807
0.0390335
0.0416655
0.0442634
0.0468137
0.0493031
0.0517181
0.0540457
0.0562727
0.0583867
0.0603752
0.0622265
0.0639295
0.0654736
0.0668489
0.0680465
0.0690584
0.0698772
0.0704971
0.0709129
0.0711208
0.0711179
0.0709026
0.0704743
0.0698336
0.0689823
0.0679227
0.0666583
0.0651932
0.0635321
0.0616802
0.059643
0.0574259
0.0550327
0.0524669
0.0497515
0.0469058
0.043666
0.0398091
0.0274778
0.0231959
0.0196488
0.0165848
0.013703
0.0110189
0.0085522
0.0063001
0.00425983
0.00243042
0.000810935
-0.00059967
-0.00180257
-0.0027991
-0.00359084
-0.00417963
-0.00456764
-0.0047574
-0.00475182
-0.00455417
-0.00416817
-0.00359794
-0.00284805
-0.00192351
-0.000829756
0.00042729
0.00184126
0.00340533
0.00511219
0.00695407
0.00892273
0.0110094
0.013205
0.0154999
0.0178838
0.0203462
0.0228763
0.0254624
0.0280929
0.0307556
0.0334379
0.0361271
0.0388101
0.0414737
0.0441043
0.0466886
0.0492129
0.0516638
0.0540278
0.0562918
0.0584428
0.0604682
0.0623559
0.0640941
0.065672
0.0670791
0.068306
0.0693439
0.0701851
0.0708227
0.0712511
0.0714655
0.0714623
0.0712391
0.0707944
0.070128
0.0692407
0.068134
0.0668105
0.0652735
0.0635269
0.0615751
0.0594229
0.0570752
0.0545353
0.0518064
0.0489128
0.0458748
0.0424105
0.0382817
0.028423
0.0238753
0.0201113
0.0168643
0.0138146
0.0109786
0.00837662
0.00600524
0.00386072
0.00194113
0.000244604
-0.00123095
-0.00248773
-0.00352808
-0.00435455
-0.00496993
-0.00537726
-0.00557989
-0.00558147
-0.00538599
-0.00499778
-0.0044215
-0.00366221
-0.00272534
-0.00161669
-0.00034248
0.00109069
0.00267577
0.00440533
0.00627146
0.00826586
0.0103797
0.0126039
0.0149287
0.017344
0.0198393
0.0224036
0.0250256
0.0276933
0.0303947
0.0331173
0.0358482
0.0385744
0.0412824
0.0439588
0.0465899
0.0491619
0.0516613
0.0540742
0.0563873
0.0585872
0.0606609
0.0625958
0.0643798
0.0660015
0.0674498
0.0687146
0.0697867
0.0706574
0.0713194
0.0717659
0.0719916
0.0719921
0.0717641
0.0713054
0.0706146
0.0696919
0.0685379
0.0671546
0.0655444
0.0637105
0.0616566
0.0593872
0.0569066
0.0542179
0.0513239
0.0482506
0.0450196
0.0413308
0.0369312
0.0291226
0.0243118
0.0203327
0.0169037
0.0136866
0.0106987
0.00796123
0.00547008
0.00322067
0.00121028
-0.000563884
-0.00210481
-0.00341563
-0.00449963
-0.00536028
-0.00600122
-0.00642636
-0.00663981
-0.00664596
-0.00644946
-0.00605523
-0.00546851
-0.00469481
-0.00374
-0.00261024
-0.00131205
0.000147679
0.00176171
0.00352243
0.00542179
0.00745138
0.00960237
0.0118655
0.014231
0.0166889
0.0192285
0.0218389
0.0245087
0.027226
0.0299787
0.0327543
0.0355398
0.038322
0.0410875
0.0438227
0.0465136
0.0491464
0.051707
0.0541815
0.056556
0.0588169
0.0609507
0.0629444
0.0647852
0.0664611
0.0679606
0.0692727
0.0703876
0.0712959
0.0719894
0.0724607
0.0727034
0.0727125
0.0724837
0.072014
0.0713014
0.0703448
0.0691445
0.0677015
0.0660176
0.0640955
0.0619383
0.05955
0.0569347
0.0540953
0.0510346
0.04778
0.0443549
0.0404408
0.03577
0.0295609
0.0244888
0.0202959
0.0166856
0.0133016
0.0101621
0.00728922
0.00467824
0.00232386
0.000222604
-0.0016291
-0.0032351
-0.0045994
-0.00572617
-0.0066197
-0.00728451
-0.00772527
-0.00794686
-0.00795437
-0.00775308
-0.00734854
-0.00674649
-0.00595295
-0.00497419
-0.00381676
-0.0024875
-0.000993566
0.000657568
0.00245809
0.00439982
0.0064742
0.00867231
0.0109848
0.0134019
0.0159135
0.018509
0.0211773
0.023907
0.0266863
0.029503
0.0323443
0.0351973
0.0380487
0.0408848
0.0436919
0.0464558
0.0491624
0.0517973
0.0543463
0.0567951
0.0591295
0.0613356
0.0633999
0.0653091
0.0670504
0.0686115
0.069981
0.0711481
0.0721027
0.0728358
0.0733391
0.0736056
0.073629
0.0734044
0.0729279
0.0721967
0.071209
0.0699642
0.0684625
0.0667054
0.0646948
0.0624336
0.0599254
0.0571741
0.0541824
0.0509533
0.0475158
0.0438949
0.039754
0.0348105
0.0297227
0.0243903
0.0199841
0.0161932
0.0126427
0.00935185
0.00634383
0.0036133
0.00115429
-0.00103733
-0.0029659
-0.00463607
-0.00605264
-0.00722061
-0.0081451
-0.0088314
-0.00928496
-0.00951139
-0.00951645
-0.00930608
-0.00888639
-0.00826366
-0.00744439
-0.00643529
-0.00524328
-0.00387553
-0.00233948
-0.000642845
0.00120635
0.00319975
0.00532867
0.00758407
0.00995649
0.0124361
0.0150127
0.0176756
0.0204138
0.0232157
0.0260694
0.0289626
0.0318825
0.034816
0.0377498
0.0406698
0.0435622
0.0464125
0.0492063
0.0519289
0.0545656
0.0571017
0.0595226
0.0618138
0.0639611
0.0659506
0.0677689
0.069403
0.0708407
0.0720701
0.0730806
0.0738622
0.0744058
0.0747034
0.0747479
0.0745334
0.0740552
0.0733097
0.0722944
0.0710077
0.0694495
0.0676203
0.0655219
0.0631566
0.0605278
0.0576395
0.0544941
0.0510949
0.0474725
0.0436537
0.0392835
0.0340645
0.0295927
0.0240001
0.019381
0.0154095
0.0116928
0.00825098
0.00510823
0.0022587
-0.000304202
-0.00258527
-0.00458952
-0.00632237
-0.0077894
-0.0089964
-0.00994927
-0.0106541
-0.011117
-0.0113444
-0.0113426
-0.0111183
-0.0106781
-0.0100289
-0.00917757
-0.00813132
-0.00689744
-0.00548344
-0.00389706
-0.00214626
-0.000239304
0.00181529
0.00400868
0.00633167
0.00877471
0.0113279
0.0139809
0.0167229
0.0195429
0.0224293
0.0253699
0.0283524
0.0313639
0.0343912
0.0374206
0.040438
0.0434293
0.0463796
0.0492743
0.0520982
0.0548362
0.0574731
0.0599939
0.0623833
0.0646266
0.0667092
0.0686169
0.0703359
0.0718531
0.073156
0.0742329
0.0750728
0.0756657
0.0760028
0.0760761
0.0758786
0.0754048
0.0746503
0.0736116
0.0722867
0.0706746
0.0687754
0.0665904
0.0641215
0.0613721
0.0583459
0.0550456
0.0514744
0.0476649
0.0436456
0.039043
0.0335443
0.0291557
0.0233022
0.0184697
0.0143177
0.0104348
0.00684233
0.00356539
0.000597654
-0.0020681
-0.00443728
-0.00651557
-0.0083091
-0.00982423
-0.0110675
-0.0120456
-0.0127653
-0.0132336
-0.0134574
-0.0134439
-0.0132002
-0.0127337
-0.0120516
-0.0111615
-0.0100709
-0.00878744
-0.00731909
-0.00567384
-0.00385994
-0.00188586
0.000239671
0.00250764
0.00490871
0.00743322
0.0100711
0.012812
0.015645
0.018559
0.0215421
0.0245823
0.0276671
0.0307833
0.0339177
0.0370562
0.0401847
0.0432886
0.0463529
0.0493624
0.0523016
0.055155
0.0579068
0.0605412
0.0630427
0.0653956
0.0675846
0.0695946
0.0714113
0.0730204
0.0744085
0.075563
0.0764719
0.0771244
0.0775104
0.077621
0.0774484
0.0769861
0.0762287
0.0751721
0.0738134
0.072151
0.0701845
0.0679146
0.0653432
0.0624733
0.0593088
0.0558523
0.0521072
0.0481081
0.0438853
0.0390462
0.0332624
0.0283959
0.0222801
0.0172334
0.0129004
0.00885144
0.00510853
0.00169801
-0.00138697
-0.00415427
-0.00660985
-0.0087601
-0.0106118
-0.0121722
-0.0134484
-0.014448
-0.0151784
-0.0156474
-0.0158626
-0.0158319
-0.0155629
-0.0150636
-0.0143419
-0.0134057
-0.012263
-0.010922
-0.00939083
-0.00767785
-0.00579159
-0.00374077
-0.00153432
0.000818573
0.00330841
0.00592539
0.00865936
0.0114998
0.0144357
0.0174558
0.0205483
0.0237009
0.026901
0.0301352
0.0333901
0.0366515
0.039905
0.0431356
0.046328
0.0494666
0.0525356
0.0555188
0.0583999
0.0611625
0.0637903
0.066267
0.0685764
0.0707027
0.0726305
0.0743446
0.0758307
0.0770751
0.0780648
0.0787878
0.0792331
0.0793907
0.079252
0.0788092
0.0780561
0.0769878
0.0756006
0.0738923
0.071862
0.0695098
0.0668374
0.0638476
0.0605444
0.0569305
0.0530095
0.048818
0.0443879
0.0393074
0.0332323
0.0272973
0.020917
0.0156549
0.0111402
0.00692487
0.00303178
-0.000511637
-0.00371274
-0.00657999
-0.00911996
-0.0113397
-0.0132467
-0.0148488
-0.0161542
-0.0171709
-0.0179073
-0.0183718
-0.0185728
-0.0185187
-0.0182179
-0.017679
-0.0169103
-0.0159203
-0.0147175
-0.0133103
-0.0117075
-0.00991754
-0.00794935
-0.00581186
-0.00351424
-0.00106586
0.00152364
0.0042443
0.00708584
0.0100376
0.0130886
0.0162273
0.0194417
0.0227197
0.0260482
0.0294139
0.0328031
0.0362013
0.0395939
0.0429655
0.0463006
0.0495831
0.0527966
0.0559245
0.0589499
0.0618557
0.0646248
0.0672402
0.0696848
0.0719419
0.0739951
0.0758283
0.0774261
0.0787736
0.0798567
0.0806624
0.0811785
0.0813939
0.0812989
0.0808847
0.0801442
0.0790714
0.077662
0.075913
0.0738229
0.0713916
0.0686202
0.0655115
0.0620696
0.0582971
0.0541981
0.0498109
0.0451695
0.0398421
0.0334679
0.0258433
0.0191958
0.0137164
0.00901909
0.00463694
0.00059382
-0.00308179
-0.00639774
-0.00936312
-0.0119851
-0.0142714
-0.0162303
-0.0178704
-0.0192004
-0.0202294
-0.0209665
-0.0214207
-0.0216012
-0.021517
-0.0211774
-0.0205914
-0.0197678
-0.0187158
-0.0174442
-0.015962
-0.0142782
-0.0124017
-0.0103417
-0.00810731
-0.00570799
-0.00315329
-0.000453021
0.00238272
0.00534353
0.00841863
0.0115969
0.0148667
0.018216
0.0216323
0.0251027
0.0286135
0.0321509
0.0357001
0.0392462
0.0427735
0.0462661
0.0497075
0.0530809
0.0563689
0.059554
0.0626186
0.0655447
0.0683144
0.0709098
0.0733132
0.0755071
0.0774743
0.0791984
0.0806632
0.0818536
0.0827553
0.0833547
0.0836398
0.0835995
0.0832241
0.0825054
0.0814365
0.0800121
0.0782285
0.0760836
0.0735767
0.070709
0.0674828
0.0639023
0.0599702
0.0556907
0.0511044
0.0462472
0.0406663
0.0339843
0.0240166
0.0170985
0.0113995
0.00651833
0.00196879
-0.00222426
-0.00603129
-0.00946067
-0.0125221
-0.0152235
-0.0175731
-0.01958
-0.0212535
-0.0226033
-0.0236392
-0.0243709
-0.0248084
-0.0249615
-0.0248402
-0.024454
-0.0238127
-0.0229259
-0.0218031
-0.0204537
-0.0188871
-0.0171125
-0.0151395
-0.0129774
-0.0106356
-0.00812371
-0.0054516
-0.00262919
0.000333261
0.00342523
0.00663582
0.00995377
0.0133674
0.0168645
0.0204326
0.0240583
0.0277281
0.0314277
0.0351423
0.0388566
0.0425547
0.04622
0.0498358
0.0533846
0.0568486
0.0602096
0.0634492
0.0665486
0.069489
0.0722515
0.0748175
0.0771683
0.0792856
0.0811517
0.0827492
0.0840618
0.0850738
0.0857704
0.0861382
0.0861649
0.0858397
0.0851531
0.0840973
0.0826661
0.0808549
0.0786609
0.0760831
0.0731221
0.0697802
0.0660615
0.0619687
0.0575064
0.0527172
0.047639
0.0417976
0.0347981
0.0217992
0.0146063
0.00868511
0.00361855
-0.00109913
-0.00544208
-0.00937971
-0.0129209
-0.0160762
-0.0188539
-0.0212631
-0.0233137
-0.0250158
-0.0263798
-0.0274164
-0.0281363
-0.02855
-0.0286683
-0.0285017
-0.0280607
-0.0273555
-0.0263965
-0.0251935
-0.0237567
-0.0220957
-0.0202203
-0.0181403
-0.0158654
-0.0134052
-0.0107697
-0.00796881
-0.00501266
-0.00191164
0.00132358
0.00468201
0.00815228
0.0117226
0.0153807
0.0191138
0.0229087
0.0267515
0.0306277
0.0345224
0.0384198
0.0423038
0.0461575
0.0499636
0.053704
0.0573604
0.0609139
0.0643453
0.0676351
0.0707634
0.0737103
0.0764561
0.0789809
0.0812654
0.0832903
0.0850371
0.086488
0.0876258
0.0884346
0.0888995
0.0890067
0.0887443
0.0881014
0.0870692
0.0856404
0.0838096
0.0815733
0.0789297
0.0758791
0.0724237
0.0685674
0.064313
0.0596654
0.0546693
0.0493646
0.0432548
0.0359269
0.019172
0.0116998
0.00555329
0.000299511
-0.00458723
-0.0090801
-0.0131475
-0.0167988
-0.0200452
-0.0228959
-0.0253606
-0.02745
-0.0291752
-0.0305474
-0.031578
-0.0322787
-0.0326609
-0.0327361
-0.0325157
-0.0320109
-0.0312325
-0.0301916
-0.0288986
-0.0273641
-0.0255983
-0.0236115
-0.0214136
-0.0190148
-0.016425
-0.0136544
-0.010713
-0.00761125
-0.00435958
-0.000968789
0.00255002
0.00618539
0.00992544
0.0137578
0.0176697
0.0216476
0.0256775
0.0297449
0.0338345
0.0379303
0.0420158
0.0460738
0.0500864
0.0540351
0.0579009
0.0616642
0.0653049
0.0688028
0.0721369
0.0752864
0.0782302
0.0809474
0.0834171
0.0856188
0.0875327
0.0891392
0.0904199
0.0913573
0.0919348
0.0921374
0.0919516
0.0913654
0.0903684
0.0889525
0.0871111
0.08484
0.0821367
0.0790009
0.0754347
0.0714418
0.0670252
0.0621897
0.0569823
0.0514451
0.0450584
0.0373903
0.0161153
0.0083584
0.0019831
-0.00345999
-0.00851685
-0.0131597
-0.0173559
-0.0211154
-0.0244501
-0.02737
-0.0298856
-0.0320085
-0.0337506
-0.0351241
-0.0361414
-0.0368149
-0.0371572
-0.0371804
-0.0368969
-0.0363184
-0.0354569
-0.0343237
-0.0329301
-0.0312871
-0.0294056
-0.0272961
-0.024969
-0.0224348
-0.0197038
-0.0167862
-0.0136923
-0.0104328
-0.00701812
-0.00345924
0.000232688
0.00404612
0.00796911
0.0119892
0.0160935
0.0202685
0.0245
0.0287733
0.0330729
0.0373826
0.0416855
0.045964
0.0501998
0.0543738
0.0584665
0.0624574
0.0663258
0.0700503
0.0736091
0.0769801
0.0801412
0.08307
0.0857443
0.0881421
0.090242
0.092023
0.0934649
0.0945485
0.0952559
0.0955702
0.0954764
0.094961
0.0940124
0.0926209
0.0907792
0.0884818
0.0857256
0.0825099
0.0788361
0.0747081
0.0701286
0.0651027
0.0596796
0.0539036
0.0472305
0.0392093
0.0126081
0.00456059
-0.0020475
-0.00768224
-0.0129105
-0.0177034
-0.0220273
-0.0258928
-0.0293127
-0.0322976
-0.034859
-0.0370094
-0.0387616
-0.0401289
-0.0411247
-0.0417624
-0.0420553
-0.0420168
-0.04166
-0.0409975
-0.0400419
-0.0388054
-0.0373
-0.0355371
-0.0335282
-0.0312842
-0.0288161
-0.0261345
-0.0232501
-0.0201733
-0.0169147
-0.0134849
-0.00989467
-0.00615496
-0.00227699
0.00172763
0.00584692
0.0100684
0.014379
0.0187653
0.0232129
0.027707
0.0322319
0.0367712
0.0413076
0.0458233
0.0502993
0.0547163
0.0590538
0.0632909
0.0674057
0.0713761
0.0751793
0.0787919
0.0821905
0.0853513
0.0882508
0.0908653
0.0931716
0.0951472
0.0967701
0.0980194
0.0988752
0.099319
0.0993341
0.0989053
0.0980194
0.0966655
0.0948349
0.092521
0.0897199
0.0864301
0.0826528
0.0783914
0.0736487
0.0684299
0.0627865
0.0567647
0.0497955
0.0414072
0.00862817
0.000283585
-0.0065617
-0.0123907
-0.0177917
-0.0227348
-0.0271852
-0.0311544
-0.0346559
-0.0377012
-0.0403027
-0.0424739
-0.0442287
-0.0455815
-0.0465467
-0.0471389
-0.0473724
-0.0472615
-0.0468203
-0.0460623
-0.0450011
-0.0436495
-0.0420201
-0.0401252
-0.0379765
-0.0355858
-0.0329642
-0.0301228
-0.0270724
-0.0238238
-0.0203878
-0.016775
-0.0129964
-0.00906285
-0.00498574
-0.000776649
0.00355243
0.00798901
0.01252
0.0171319
0.0218103
0.0265402
0.0313059
0.0360907
0.0408771
0.0456468
0.0503806
0.0550584
0.0596593
0.0641616
0.0685425
0.072779
0.076847
0.0807221
0.0843795
0.0877941
0.0909404
0.0937935
0.0963282
0.0985201
0.100345
0.101781
0.102806
0.103399
0.103541
0.103216
0.102409
0.101107
0.0993007
0.0969814
0.0941444
0.0907875
0.0869113
0.082519
0.0776131
0.0721989
0.0663303
0.0600558
0.0527797
0.0440093
0.0041523
-0.00449668
-0.0115841
-0.0176103
-0.0231855
-0.0282789
-0.0328546
-0.0369247
-0.0405038
-0.0436042
-0.0462394
-0.048424
-0.0501732
-0.0515022
-0.0524269
-0.0529629
-0.0531258
-0.0529309
-0.0523933
-0.0515276
-0.0503481
-0.0488686
-0.0471024
-0.0450624
-0.0427611
-0.0402106
-0.0374224
-0.0344081
-0.0311788
-0.0277454
-0.0241189
-0.0203101
-0.0163299
-0.0121894
-0.00789988
-0.0034729
0.00107958
0.00574509
0.0105106
0.0153625
0.0202865
0.0252674
0.0302895
0.0353359
0.0403889
0.0454299
0.0504392
0.0553963
0.0602796
0.0650666
0.0697339
0.0742573
0.0786116
0.0827712
0.0867099
0.0904009
0.0938174
0.0969323
0.0997188
0.10215
0.104201
0.105846
0.107062
0.107825
0.108115
0.107913
0.107203
0.105969
0.104201
0.101889
0.099026
0.0956099
0.0916404
0.0871202
0.0820515
0.0764396
0.0703409
0.0638061
0.0562119
0.0470435
-0.000844288
-0.00980571
-0.0171406
-0.0233672
-0.0291183
-0.0343621
-0.0390615
-0.0432296
-0.0468817
-0.0500314
-0.0526933
-0.0548831
-0.0566171
-0.0579123
-0.0587854
-0.0592536
-0.0593335
-0.0590419
-0.0583947
-0.0574079
-0.0560965
-0.0544754
-0.0525586
-0.0503598
-0.047892
-0.0451678
-0.0421995
-0.0389986
-0.0355768
-0.0319452
-0.0281148
-0.0240965
-0.0199015
-0.0155406
-0.0110252
-0.00636674
-0.00157717
0.00333117
0.00834535
0.0134518
0.0186362
0.0238834
0.0291776
0.0345018
0.0398383
0.0451679
0.0504709
0.055726
0.0609111
0.0660031
0.0709777
0.0758096
0.0804726
0.0849397
0.0891832
0.0931748
0.0968859
0.100287
0.103351
0.106047
0.108348
0.110227
0.111657
0.112614
0.113075
0.113017
0.112423
0.111276
0.109562
0.10727
0.104394
0.100928
0.0968712
0.0922269
0.0869962
0.0811846
0.0748509
0.068048
0.0601237
0.0505401
-0.00638782
-0.0156706
-0.023259
-0.0296896
-0.0356183
-0.0410125
-0.045834