/*--------------------------------*- C++ -*----------------------------------*\
  =========                 |
  \\      /  F ield         | OpenFOAM: The Open Source CFD Toolbox
   \\    /   O peration     | Website:  https://openfoam.org
    \\  /    A nd           | Version:  7
     \\/     M anipulation  |
\*---------------------------------------------------------------------------*/
FoamFile
{
    version     2.0;
    format      ascii;
    class       volScalarField;
    location    "0.4";
    object      p;
}
// * * * * * * * * * * * * * * * * * * * * * * * * * * * * * * * * * * * * * //

dimensions      [0 2 -2 0 0 0 0];

internalField   nonuniform List<scalar> 
25600
(
3.777e-07
0.000112539
0.000141377
3.33577e-05
-0.000219917
-0.000614173
-0.00113866
-0.00177867
-0.00251873
-0.00334375
-0.00423922
-0.00519135
-0.00618771
-0.0072166
-0.00826727
-0.00932992
-0.0103955
-0.0114558
-0.0125031
-0.0135306
-0.0145319
-0.0155012
-0.0164334
-0.0173235
-0.0181672
-0.0189605
-0.0196999
-0.0203821
-0.0210043
-0.0215638
-0.0220585
-0.0224863
-0.0228455
-0.0231344
-0.023352
-0.023497
-0.0235688
-0.0235667
-0.0234901
-0.0233388
-0.0231125
-0.0228115
-0.0224358
-0.0219858
-0.021462
-0.0208648
-0.0201951
-0.0194537
-0.0186416
-0.0177597
-0.0168092
-0.0157913
-0.0147075
-0.0135591
-0.0123477
-0.0110748
-0.0097422
-0.00835158
-0.00690478
-0.0054037
-0.00385029
-0.00224659
-0.000594686
0.00110329
0.00284514
0.00462861
0.00645139
0.00831111
0.0102054
0.0121317
0.0140877
0.0160707
0.0180782
0.0201077
0.0221564
0.0242218
0.0263011
0.0283917
0.0304908
0.0325956
0.0347035
0.0368115
0.0389169
0.0410169
0.0431086
0.0451894
0.0472563
0.0493066
0.0513375
0.0533461
0.0553298
0.0572857
0.0592112
0.0611036
0.0629601
0.0647782
0.0665552
0.0682885
0.0699758
0.0716145
0.0732022
0.0747366
0.0762155
0.0776366
0.0789978
0.0802971
0.0815325
0.0827023
0.0838046
0.0848378
0.0858004
0.0866909
0.087508
0.0882507
0.0889177
0.0895084
0.0900218
0.0904574
0.0908149
0.0910939
0.0912943
0.0914163
0.0914602
0.0914264
0.0913157
0.0911289
0.0908672
0.090532
0.0901249
0.0896477
0.0891026
0.088492
0.0878186
0.0870854
0.0862958
0.0854535
0.0845624
0.0836271
0.0826522
0.081643
0.0806052
0.079545
0.078469
0.0773846
0.0762994
0.0752221
0.0741617
0.0731281
0.072132
0.071185
0.0702994
0.0694884
0.068766
0.0681465
0.0676443
0.0672727
0.0670409
0.0669507
0.0669911
0.0671065
-0.00011097
9.39875e-07
5.22439e-06
-0.000115609
-0.000357492
-0.000718998
-0.00119335
-0.00177003
-0.00243729
-0.00318267
-0.00399395
-0.00485933
-0.00576763
-0.00670822
-0.00767117
-0.00864745
-0.00962859
-0.0106067
-0.0115746
-0.0125256
-0.0134536
-0.0143529
-0.0152185
-0.0160457
-0.0168301
-0.0175679
-0.0182555
-0.0188897
-0.0194676
-0.0199867
-0.0204446
-0.0208395
-0.0211693
-0.0214326
-0.0216282
-0.0217549
-0.0218118
-0.0217983
-0.0217137
-0.0215577
-0.0213302
-0.021031
-0.0206604
-0.0202186
-0.019706
-0.019123
-0.0184703
-0.0177488
-0.0169592
-0.0161026
-0.01518
-0.0141925
-0.0131415
-0.0120283
-0.0108543
-0.00962118
-0.00833041
-0.00698368
-0.00558276
-0.00412945
-0.00262565
-0.00107331
0.000525572
0.00216894
0.00385468
0.00558061
0.0073445
0.00914406
0.010977
0.0128409
0.0147334
0.016652
0.0185943
0.0205577
0.0225398
0.0245379
0.0265494
0.0285718
0.0306023
0.0326384
0.0346773
0.0367164
0.0387528
0.040784
0.0428071
0.0448196
0.0468186
0.0488016
0.0507656
0.0527082
0.0546265
0.0565181
0.0583802
0.0602102
0.0620056
0.0637638
0.0654823
0.0671587
0.0687906
0.0703755
0.0719113
0.0733957
0.0748265
0.0762016
0.0775189
0.0787767
0.0799729
0.081106
0.0821741
0.0831758
0.0841096
0.0849741
0.0857682
0.0864908
0.0871408
0.0877176
0.0882204
0.0886487
0.0890022
0.0892807
0.0894841
0.0896126
0.0896666
0.0896466
0.0895534
0.0893878
0.0891511
0.0888447
0.0884702
0.0880294
0.0875245
0.086958
0.0863325
0.085651
0.0849168
0.0841335
0.0833051
0.0824359
0.0815305
0.0805942
0.0796323
0.0786508
0.0776561
0.0766552
0.0756554
0.0746649
0.0736922
0.0727464
0.0718373
0.0709753
0.0701715
0.0694372
0.0687841
0.0682238
0.0677673
0.0674239
0.0671989
0.0670924
0.0671063
0.0672219
-0.00013957
-2.87977e-06
1.42555e-06
-0.000120779
-0.00035275
-0.000691621
-0.00113199
-0.00166515
-0.00228106
-0.00296903
-0.00371855
-0.00451918
-0.00536082
-0.00623383
-0.00712907
-0.00803807
-0.0089529
-0.00986614
-0.0107709
-0.0116607
-0.0125298
-0.0133728
-0.0141846
-0.0149607
-0.0156969
-0.0163894
-0.0170345
-0.0176293
-0.0181708
-0.0186566
-0.0190842
-0.0194518
-0.0197573
-0.0199994
-0.0201767
-0.0202881
-0.0203326
-0.0203095
-0.0202183
-0.0200584
-0.0198297
-0.0195322
-0.0191658
-0.0187308
-0.0182275
-0.0176564
-0.017018
-0.0163131
-0.0155425
-0.014707
-0.0138078
-0.0128459
-0.0118225
-0.0107389
-0.00959644
-0.00839669
-0.00714113
-0.00583137
-0.00446909
-0.00305605
-0.00159406
-8.50101e-05
0.00146917
0.00306649
0.00470491
0.0063823
0.00809652
0.00984533
0.0116265
0.0134377
0.0152767
0.017141
0.0190282
0.020936
0.0228618
0.0248031
0.0267575
0.0287223
0.0306951
0.0326732
0.034654
0.0366349
0.0386132
0.0405864
0.0425518
0.0445067
0.0464486
0.0483748
0.0502826
0.0521696
0.054033
0.0558704
0.0576791
0.0594567
0.0612007
0.0629087
0.0645781
0.0662066
0.067792
0.0693319
0.0708241
0.0722665
0.073657
0.0749935
0.0762742
0.0774971
0.0786606
0.0797629
0.0808025
0.0817778
0.0826876
0.0835304
0.0843053
0.0850111
0.085647
0.0862122
0.0867062
0.0871284
0.0874786
0.0877566
0.0879624
0.0880963
0.0881587
0.0881501
0.0880713
0.0879233
0.0877073
0.0874246
0.0870769
0.086666
0.0861942
0.0856638
0.0850774
0.0844381
0.0837491
0.0830138
0.0822362
0.0814205
0.0805712
0.0796933
0.0787921
0.0778733
0.0769432
0.0760081
0.0750754
0.0741525
0.0732475
0.0723688
0.0715256
0.0707271
0.0699834
0.0693044
0.0687004
0.0681811
0.0677559
0.0674325
0.0672152
0.067106
0.0671202
0.0672624
-3.17468e-05
0.000118151
0.00012438
2.13139e-06
-0.000224116
-0.000549251
-0.000967779
-0.00147151
-0.00205138
-0.00269798
-0.00340196
-0.00415374
-0.00494415
-0.00576443
-0.00660618
-0.00746148
-0.00832289
-0.00918337
-0.0100364
-0.0108758
-0.0116962
-0.0124921
-0.0132589
-0.0139921
-0.0146876
-0.0153416
-0.0159507
-0.0165119
-0.0170224
-0.0174796
-0.0178812
-0.0182253
-0.0185099
-0.0187336
-0.0188951
-0.0189933
-0.0190271
-0.0189957
-0.0188987
-0.0187354
-0.0185058
-0.0182096
-0.0178469
-0.0174179
-0.0169228
-0.0163621
-0.0157363
-0.015046
-0.0142921
-0.0134753
-0.0125967
-0.0116572
-0.0106581
-0.00960061
-0.00848601
-0.00731575
-0.00609127
-0.00481414
-0.00348598
-0.0021085
-0.000683461
0.000787333
0.00230201
0.00385863
0.00545521
0.00708969
0.00875997
0.0104639
0.0121993
0.013964
0.0157556
0.0175718
0.0194104
0.0212689
0.023145
0.0250361
0.02694
0.028854
0.0307757
0.0327025
0.034632
0.0365615
0.0384885
0.0404105
0.0423248
0.044229
0.0461204
0.0479966
0.0498548
0.0516927
0.0535077
0.0552974
0.0570591
0.0587906
0.0604894
0.062153
0.0637792
0.0653657
0.0669102
0.0684105
0.0698644
0.07127
0.072625
0.0739278
0.0751763
0.0763687
0.0775035
0.0785789
0.0795934
0.0805457
0.0814344
0.0822583
0.0830163
0.0837075
0.084331
0.0848861
0.0853723
0.0857892
0.0861364
0.086414
0.0866219
0.0867605
0.08683
0.0868313
0.0867649
0.0866319
0.0864335
0.0861711
0.0858463
0.0854611
0.0850174
0.0845178
0.0839647
0.0833611
0.0827101
0.0820153
0.0812804
0.0805095
0.079707
0.0788776
0.0780266
0.0771594
0.0762819
0.0754005
0.0745217
0.0736527
0.0728011
0.0719748
0.0711821
0.0704317
0.0697326
0.0690937
0.0685241
0.0680327
0.067628
0.0673173
0.0671054
0.0669964
0.0670137
0.0671727
0.000220985
0.000360493
0.000356901
0.000229023
2.79351e-06
-0.000315457
-0.00071985
-0.00120243
-0.00175488
-0.00236883
-0.00303572
-0.00374695
-0.00449415
-0.0052693
-0.00606472
-0.00687303
-0.00768724
-0.00850078
-0.00930745
-0.0101015
-0.0108776
-0.0116308
-0.0123565
-0.0130503
-0.0137083
-0.0143268
-0.0149026
-0.0154326
-0.0159142
-0.0163448
-0.0167221
-0.0170442
-0.0173093
-0.0175158
-0.0176625
-0.0177482
-0.0177719
-0.0177328
-0.0176302
-0.0174639
-0.0172334
-0.0169386
-0.0165795
-0.0161563
-0.0156691
-0.0151183
-0.0145046
-0.0138283
-0.0130904
-0.0122916
-0.0114327
-0.0105149
-0.00953912
-0.00850667
-0.00741881
-0.00627687
-0.00508228
-0.00383653
-0.00254119
-0.00119792
0.000191582
0.00162557
0.00310223
0.00461968
0.00617599
0.00776917
0.00939717
0.0110579
0.0127493
0.0144691
0.0162151
0.0179851
0.0197769
0.021588
0.0234161
0.025259
0.0271142
0.0289793
0.0308518
0.0327294
0.0346095
0.0364896
0.0383673
0.04024
0.0421053
0.0439607
0.0458037
0.0476317
0.0494424
0.0512332
0.0530017
0.0547456
0.0564623
0.0581495
0.0598049
0.0614261
0.0630109
0.064557
0.0660623
0.0675247
0.068942
0.0703122
0.0716335
0.0729039
0.0741216
0.0752849
0.0763922
0.0774419
0.0784325
0.0793628
0.0802314
0.0810372
0.0817791
0.0824563
0.083068
0.0836134
0.0840922
0.0845039
0.0848483
0.0851254
0.0853352
0.085478
0.0855543
0.0855646
0.0855098
0.0853908
0.0852089
0.0849654
0.084662
0.0843005
0.083883
0.0834119
0.0828896
0.082319
0.0817032
0.0810455
0.0803498
0.0796198
0.0788599
0.0780747
0.077269
0.0764481
0.0756177
0.0747838
0.0739526
0.0731308
0.0723255
0.071544
0.070794
0.0700836
0.0694207
0.0688136
0.0682706
0.0677996
0.0674084
0.0671043
0.0668925
0.0667787
0.0667889
0.066942
0.00061477
0.000722321
0.000696673
0.000555205
0.000321612
2.93654e-06
-0.000394727
-0.000863924
-0.0013971
-0.0019865
-0.00262432
-0.00330284
-0.00401443
-0.00475178
-0.00550782
-0.00627569
-0.00704889
-0.00782128
-0.00858703
-0.00934074
-0.0100774
-0.0107921
-0.0114807
-0.0121388
-0.0127626
-0.0133488
-0.013894
-0.0143955
-0.0148505
-0.0152565
-0.0156114
-0.0159131
-0.01616
-0.0163506
-0.0164835
-0.0165577
-0.016572
-0.0165257
-0.0164182
-0.016249
-0.0160178
-0.0157244
-0.0153689
-0.0149512
-0.0144715
-0.0139304
-0.0133281
-0.0126653
-0.0119427
-0.011161
-0.010321
-0.00942377
-0.00847033
-0.00746184
-0.00639952
-0.00528466
-0.00411863
-0.00290287
-0.00163892
-0.000328367
0.00102715
0.00242594
0.00386623
0.00534621
0.006864
0.00841766
0.0100052
0.0116246
0.0132739
0.0149508
0.0166532
0.018379
0.0201259
0.0218916
0.023674
0.0254707
0.0272794
0.0290977
0.0309232
0.0327537
0.0345865
0.0364195
0.03825
0.0400757
0.0418941
0.0437029
0.0454996
0.0472818
0.049047
0.0507929
0.0525171
0.0542172
0.055891
0.057536
0.05915
0.0607308
0.0622761
0.0637839
0.0652519
0.0666782
0.0680606
0.0693973
0.0706864
0.071926
0.0731145
0.0742501
0.0753313
0.0763566
0.0773245
0.0782339
0.0790834
0.079872
0.0805987
0.0812626
0.081863
0.0823993
0.0828709
0.0832777
0.0836193
0.0838958
0.0841072
0.0842538
0.0843362
0.0843549
0.0843108
0.0842047
0.084038
0.083812
0.0835283
0.0831887
0.0827952
0.0823501
0.081856
0.0813156
0.0807318
0.080108
0.0794477
0.0787547
0.0780331
0.0772874
0.0765221
0.0757424
0.0749535
0.0741611
0.0733712
0.07259
0.0718241
0.0710802
0.0703655
0.0696873
0.0690529
0.0684699
0.0679457
0.0674877
0.0671031
0.066799
0.0665807
0.0664547
0.0664458
0.066572
0.00113886
0.00119774
0.00113879
0.000975245
0.000726771
0.000400319
1.91248e-06
-0.000461595
-0.000983187
-0.00155579
-0.00217228
-0.00282571
-0.00350914
-0.00421586
-0.00493938
-0.00567333
-0.00641169
-0.00714875
-0.0078791
-0.00859763
-0.00929958
-0.00998044
-0.010636
-0.0112622
-0.0118555
-0.0124126
-0.0129303
-0.0134059
-0.0138368
-0.0142204
-0.0145548
-0.014838
-0.0150684
-0.0152444
-0.0153648
-0.0154283
-0.0154341
-0.0153813
-0.0152692
-0.0150975
-0.0148658
-0.014574
-0.0142218
-0.0138094
-0.0133371
-0.012805
-0.0122137
-0.0115637
-0.0108555
-0.01009
-0.00926797
-0.00839029
-0.00745801
-0.00647223
-0.00543413
-0.00434494
-0.00320599
-0.00201869
-0.000784514
0.000495009
0.00181829
0.00318367
0.00458946
0.00603389
0.00751512
0.00903128
0.0105804
0.0121607
0.0137699
0.0154061
0.0170671
0.0187509
0.0204553
0.022178
0.023917
0.0256698
0.0274344
0.0292083
0.0309893
0.0327751
0.0345632
0.0363514
0.0381372
0.0399183
0.0416924
0.0434571
0.04521
0.0469487
0.0486709
0.0503743
0.0520565
0.0537153
0.0553484
0.0569536
0.0585285
0.0600711
0.0615792
0.0630507
0.0644835
0.0658757
0.0672253
0.0685303
0.0697891
0.0709997
0.0721606
0.0732701
0.0743268
0.075329
0.0762756
0.0771653
0.0779969
0.0787692
0.0794815
0.0801329
0.0807227
0.0812502
0.0817151
0.0821171
0.082456
0.0827317
0.0829445
0.0830946
0.0831824
0.0832087
0.0831742
0.0830799
0.082927
0.0827169
0.082451
0.0821312
0.0817595
0.081338
0.0808693
0.080356
0.079801
0.0792074
0.0785787
0.0779186
0.0772309
0.0765199
0.07579
0.0750461
0.0742931
0.0735363
0.0727814
0.0720342
0.0713007
0.0705874
0.0699006
0.0692472
0.0686338
0.0680674
0.0675547
0.0671025
0.0667175
0.0664063
0.0661744
0.0660284
0.0659894
0.0660718
0.00177969
0.00177686
0.00167479
0.00148144
0.00121095
0.000869711
0.000463558
-1.26089e-06
-0.000518268
-0.0010811
-0.00168329
-0.00231855
-0.00298059
-0.00366325
-0.00436053
-0.00506662
-0.00577592
-0.00648314
-0.00718325
-0.00787147
-0.00854331
-0.00919449
-0.00982099
-0.010419
-0.0109852
-0.0115163
-0.0120094
-0.0124618
-0.0128709
-0.0132344
-0.0135503
-0.0138167
-0.014032
-0.0141948
-0.0143038
-0.0143577
-0.0143558
-0.0142971
-0.014181
-0.0140072
-0.0137752
-0.0134848
-0.013136
-0.0127288
-0.0122634
-0.01174
-0.0111591
-0.0105212
-0.00982686
-0.00907674
-0.00827166
-0.00741252
-0.00650029
-0.00553604
-0.00452089
-0.00345603
-0.00234276
-0.00118243
2.35343e-05
0.00127364
0.00256635
0.00390008
0.00527316
0.00668387
0.00813044
0.00961104
0.0111238
0.0126668
0.0142382
0.0158357
0.0174575
0.0191015
0.0207656
0.0224476
0.0241453
0.0258567
0.0275794
0.0293113
0.0310501
0.0327935
0.0345393
0.0362851
0.0380286
0.0397676
0.0414997
0.0432226
0.044934
0.0466317
0.0483132
0.0499764
0.051619
0.0532388
0.0548335
0.056401
0.0579391
0.0594456
0.0609186
0.0623559
0.0637555
0.0651156
0.0664342
0.0677094
0.0689396
0.0701229
0.0712579
0.0723428
0.0733763
0.074357
0.0752835
0.0761546
0.0769692
0.0777264
0.0784251
0.0790646
0.0796443
0.0801636
0.0806221
0.0810195
0.0813556
0.0816305
0.0818443
0.0819974
0.0820901
0.0821232
0.0820974
0.0820137
0.0818732
0.0816773
0.0814275
0.0811256
0.0807734
0.0803732
0.0799272
0.0794381
0.0789087
0.078342
0.0777412
0.07711
0.076452
0.0757713
0.0750721
0.0743588
0.0736364
0.0729096
0.0721839
0.0714645
0.0707572
0.0700679
0.0694024
0.068767
0.0681678
0.0676111
0.0671031
0.06665
0.066258
0.0659331
0.0656808
0.0655073
0.0654284
0.0654538
0.00252261
0.0024484
0.00229535
0.00206548
0.00176643
0.00140399
0.000983698
0.000511239
-7.55337e-06
-0.000566996
-0.00116126
-0.00178463
-0.00243141
-0.00309595
-0.00377278
-0.00445655
-0.00514212
-0.00582459
-0.0064993
-0.00716178
-0.00780779
-0.0084333
-0.00903448
-0.00960783
-0.0101501
-0.0106583
-0.0111295
-0.0115612
-0.0119508
-0.0122963
-0.0125955
-0.0128469
-0.0130487
-0.0131996
-0.0132982
-0.0133436
-0.0133347
-0.0132708
-0.0131512
-0.0129756
-0.0127435
-0.0124548
-0.0121093
-0.0117071
-0.0112483
-0.0107333
-0.0101623
-0.00953594
-0.00885464
-0.00811912
-0.00733014
-0.00648857
-0.00559535
-0.00465149
-0.00365807
-0.00261626
-0.00152731
-0.000392523
0.00078671
0.00200895
0.00327271
0.00457645
0.00591854
0.00729731
0.00871105
0.010158
0.0116363
0.0131441
0.0146795
0.0162405
0.0178251
0.0194314
0.0210573
0.0227007
0.0243594
0.0260315
0.0277147
0.0294068
0.0311056
0.032809
0.0345147
0.0362204
0.0379239
0.039623
0.0413154
0.0429988
0.0446711
0.04633
0.0479731
0.0495984
0.0512036
0.0527865
0.054345
0.055877
0.0573803
0.0588529
0.0602927
0.0616978
0.0630662
0.0643961
0.0656855
0.0669327
0.068136
0.0692937
0.0704042
0.0714661
0.0724778
0.0734381
0.0743457
0.0751994
0.0759981
0.0767409
0.0774268
0.0780552
0.0786254
0.0791368
0.0795891
0.0799821
0.0803155
0.0805894
0.080804
0.0809596
0.0810566
0.0810957
0.0810776
0.0810034
0.080874
0.0806909
0.0804555
0.0801695
0.0798347
0.0794534
0.0790276
0.07856
0.0780532
0.07751
0.0769338
0.0763277
0.0756955
0.0750409
0.0743678
0.0736806
0.0729836
0.0722817
0.0715797
0.0708826
0.0701958
0.0695244
0.0688742
0.0682506
0.0676593
0.0671062
0.0665967
0.0661366
0.0657314
0.0653866
0.0651075
0.0648997
0.0647731
0.0647317
0.0033533
0.00320087
0.0029907
0.00271868
0.00238533
0.00199599
0.00155593
0.00107018
0.000543832
-1.80143e-05
-0.000610125
-0.00122732
-0.00186444
-0.00251636
-0.00317805
-0.00384465
-0.00451143
-0.00517389
-0.00582771
-0.00646872
-0.00709292
-0.00769651
-0.00827596
-0.00882796
-0.00934946
-0.00983757
-0.0102896
-0.0107029
-0.0110753
-0.0114047
-0.0116892
-0.0119271
-0.0121169
-0.0122572
-0.0123467
-0.0123843
-0.0123693
-0.0123009
-0.0121783
-0.0120013
-0.0117694
-0.0114824
-0.0111402
-0.0107429
-0.0102905
-0.00978342
-0.00922193
-0.00860647
-0.00793758
-0.0072159
-0.00644218
-0.00561726
-0.00474202
-0.00381745
-0.0028446
-0.00182459
-0.000758644
0.000351975
0.00150593
0.00270182
0.0039382
0.00521356
0.00652634
0.00787491
0.00925759
0.0106727
0.0121184
0.0135929
0.0150943
0.0166207
0.0181702
0.0197409
0.0213306
0.0229375
0.0245594
0.0261943
0.0278401
0.0294946
0.0311558
0.0328213
0.0344891
0.036157
0.0378228
0.0394842
0.0411392
0.0427854
0.0444208
0.046043
0.04765
0.0492395
0.0508095
0.0523577
0.0538821
0.0553807
0.0568513
0.0582919
0.0597006
0.0610754
0.0624145
0.0637159
0.0649779
0.0661988
0.0673768
0.0685104
0.0695981
0.0706382
0.0716296
0.0725708
0.0734606
0.074298
0.0750818
0.075811
0.076485
0.0771028
0.077664
0.078168
0.0786144
0.079003
0.0793338
0.0796066
0.0798216
0.0799793
0.08008
0.0801243
0.0801131
0.0800472
0.0799277
0.0797559
0.0795332
0.0792613
0.0789419
0.0785772
0.0781692
0.0777204
0.0772333
0.0767107
0.0761556
0.0755712
0.074961
0.0743284
0.0736773
0.0730116
0.0723357
0.0716537
0.0709704
0.0702904
0.0696186
0.0689598
0.0683191
0.0677018
0.0671128
0.0665575
0.066041
0.0655682
0.0651443
0.0647741
0.0644625
0.0642149
0.0640343
0.0639191
0.00425852
0.00402318
0.00375114
0.00343232
0.00305983
0.00263866
0.00217386
0.00166969
0.00113062
0.000561191
-3.39445e-05
-0.000650104
-0.00128266
-0.00192694
-0.00257839
-0.00323257
-0.00388517
-0.00453205
-0.00516919
-0.0057927
-0.00639884
-0.00698409
-0.00754518
-0.00807902
-0.0085827
-0.00905346
-0.00948874
-0.00988613
-0.0102435
-0.0105588
-0.0108303
-0.0110564
-0.0112355
-0.0113664
-0.0114478
-0.0114788
-0.0114584
-0.011386
-0.011261
-0.0110829
-0.0108514
-0.0105663
-0.0102274
-0.00983479
-0.00938863
-0.00888916
-0.00833669
-0.00773163
-0.0070745
-0.00636594
-0.00560667
-0.00479748
-0.00393925
-0.00303291
-0.00207949
-0.00108008
-3.58581e-05
0.00105194
0.00218201
0.00335302
0.00456355
0.00581213
0.00709724
0.00841729
0.00977066
0.0111557
0.0125706
0.0140136
0.015483
0.0169767
0.0184931
0.0200301
0.0215858
0.0231583
0.0247454
0.0263453
0.0279558
0.0295749
0.0312005
0.0328304
0.0344625
0.0360948
0.037725
0.039351
0.0409706
0.0425818
0.0441824
0.0457703
0.0473432
0.0488991
0.050436
0.0519516
0.053444
0.0549112
0.0563511
0.0577617
0.0591412
0.0604876
0.0617991
0.0630739
0.0643103
0.0655064
0.0666608
0.0677719
0.0688381
0.069858
0.0708302
0.0717536
0.0726268
0.0734488
0.0742185
0.0749351
0.0755978
0.0762057
0.0767584
0.0772553
0.0776962
0.0780806
0.0784086
0.0786802
0.0788955
0.0790548
0.0791586
0.0792074
0.0792021
0.0791435
0.0790326
0.0788707
0.0786592
0.0783996
0.0780937
0.0777434
0.0773509
0.0769183
0.0764482
0.0759432
0.0754062
0.0748401
0.0742482
0.073634
0.0730009
0.0723527
0.0716934
0.071027
0.0703576
0.0696899
0.0690281
0.0683769
0.0677408
0.0671245
0.0665327
0.0659702
0.0654415
0.0649511
0.0645035
0.0641029
0.0637542
0.0634621
0.0632227
0.0630286
0.00522583
0.00490449
0.00456708
0.00419772
0.00378219
0.00332507
0.00283117
0.00230407
0.0017477
0.00116604
0.000563206
-5.65885e-05
-0.00068918
-0.00133038
-0.00197604
-0.00262216
-0.00326483
-0.00390021
-0.00452455
-0.00513427
-0.0057259
-0.00629619
-0.00684212
-0.00736077
-0.00784941
-0.00830541
-0.00872636
-0.00911002
-0.00945434
-0.00975746
-0.0100177
-0.0102334
-0.0104033
-0.010526
-0.0106004
-0.0106256
-0.0106007
-0.010525
-0.010398
-0.0102193
-0.0099884
-0.0097052
-0.00936962
-0.00898167
-0.00854149
-0.00804931
-0.00750543
-0.00691025
-0.00626428
-0.00556814
-0.00482253
-0.00402821
-0.00318603
-0.00229689
-0.00136179
-0.00038181
0.000641921
0.0017082
0.00281577
0.00396333
0.00514949
0.00637283
0.00763186
0.00892505
0.0102508
0.0116075
0.0129934
0.0144068
0.0158459
0.017309
0.0187941
0.0202994
0.0218231
0.0233631
0.0249175
0.0264844
0.0280618
0.0296475
0.0312396
0.032836
0.0344346
0.0360333
0.0376301
0.0392228
0.0408094
0.0423877
0.0439556
0.0455111
0.0470521
0.0485765
0.0500823
0.0515674
0.0530298
0.0544676
0.0558787
0.0572613
0.0586134
0.0599333
0.0612191
0.062469
0.0636813
0.0648544
0.0659867
0.0670767
0.0681229
0.0691238
0.0700782
0.0709848
0.0718426
0.0726502
0.0734069
0.0741116
0.0747637
0.0753623
0.075907
0.0763973
0.0768327
0.0772131
0.0775384
0.0778086
0.0780239
0.0781844
0.0782907
0.0783434
0.0783431
0.0782908
0.0781873
0.078034
0.0778321
0.0775832
0.0772889
0.0769511
0.0765717
0.076153
0.0756973
0.0752071
0.0746851
0.0741342
0.0735574
0.072958
0.0723392
0.0717046
0.0710579
0.0704028
0.0697432
0.0690832
0.068427
0.0677787
0.0671425
0.0665227
0.0659234
0.065349
0.0648036
0.0642912
0.0638156
0.0633805
0.0629906
0.0626502
0.0623485
0.0620722
0.00624399
0.00583465
0.00542948
0.00500674
0.00454494
0.00404831
0.00352156
0.00296768
0.00238999
0.00179199
0.0011773
0.000549682
-8.71236e-05
-0.000729381
-0.00137337
-0.00201546
-0.00265208
-0.00327969
-0.00389483
-0.0044942
-0.00507463
-0.00563314
-0.0061669
-0.00667317
-0.00714938
-0.00759307
-0.00800199
-0.00837403
-0.0087073
-0.00900003
-0.0092506
-0.00945752
-0.00961943
-0.00973513
-0.00980357
-0.00982382
-0.00979512
-0.00971679
-0.00958829
-0.00940919
-0.00917917
-0.00889807
-0.0085658
-0.0081824
-0.007748
-0.00726279
-0.00672709
-0.00614129
-0.00550589
-0.0048215
-0.00408879
-0.00330849
-0.00248143
-0.0016085
-0.000690658
0.000271038
0.00127549
0.00232152
0.00340793
0.00453343
0.00569668
0.00689628
0.0081308
0.00939871
0.0106985
0.0120285
0.0133872
0.0147727
0.0161835
0.0176176
0.0190734
0.020549
0.0220425
0.0235521
0.0250758
0.0266117
0.0281579
0.0297124
0.0312731
0.032838
0.0344052
0.0359725
0.0375379
0.0390994
0.0406549
0.0422024
0.0437398
0.0452651
0.0467762
0.0482711
0.0497478
0.0512044
0.0526387
0.054049
0.0554333
0.0567897
0.0581163
0.0594114
0.0606732
0.0618999
0.0630898
0.0642415
0.0653532
0.0664236
0.0674511
0.0684344
0.0693722
0.0702633
0.0711065
0.0719009
0.0726453
0.073339
0.0739812
0.0745711
0.0751083
0.0755922
0.0760225
0.076399
0.0767216
0.0769903
0.0772052
0.0773667
0.077475
0.0775308
0.0775347
0.0774877
0.0773906
0.0772445
0.0770509
0.076811
0.0765265
0.0761991
0.0758309
0.0754237
0.07498
0.0745019
0.0739922
0.0734535
0.0728887
0.0723008
0.0716928
0.0710682
0.0704303
0.0697827
0.0691289
0.0684727
0.0678179
0.0671683
0.0665278
0.0659002
0.0652893
0.0646989
0.0641328
0.0635944
0.0630871
0.0626141
0.0621796
0.061788
0.0614213
0.0610608
0.0073026
0.00680432
0.00632984
0.00585154
0.00534084
0.00480178
0.00423901
0.00365499
0.00305245
0.00243449
0.00180426
0.0011651
0.000520314
-0.000126775
-0.000772837
-0.00141456
-0.00204868
-0.00267195
-0.0032812
-0.00387344
-0.00444578
-0.00499546
-0.00551984
-0.00601635
-0.00648259
-0.00691629
-0.00731533
-0.00767779
-0.00800187
-0.00828591
-0.00852838
-0.00872786
-0.00888308
-0.0089929
-0.00905634
-0.00907254
-0.00904074
-0.00896033
-0.00883078
-0.00865169
-0.00842278
-0.00814389
-0.00781495
-0.00743601
-0.00700717
-0.00652864
-0.00600072
-0.00542382
-0.00479843
-0.00412512
-0.00340456
-0.00263747
-0.00182463
-0.000966925
-6.53057e-05
0.000879213
0.00186556
0.0028926
0.00395914
0.00506395
0.0062057
0.00738304
0.00859455
0.00983877
0.0111142
0.0124192
0.0137523
0.0151118
0.0164959
0.017903
0.0193312
0.0207789
0.0222442
0.0237253
0.0252202
0.0267272
0.0282442
0.0297694
0.0313007
0.0328362
0.0343739
0.0359119
0.037448
0.0389803
0.0405069
0.0420256
0.0435345
0.0450315
0.0465148
0.0479822
0.0494318
0.0508617
0.05227
0.0536547
0.055014
0.056346
0.0576489
0.058921
0.0601604
0.0613656
0.0625348
0.0636665
0.0647591
0.0658113
0.0668215
0.0677884
0.0687108
0.0695875
0.0704173
0.0711993
0.0719324
0.0726158
0.0732487
0.0738305
0.0743607
0.0748386
0.0752641
0.0756369
0.0759568
0.0762239
0.0764382
0.0766002
0.07671
0.0767683
0.0767757
0.076733
0.0766412
0.0765012
0.0763144
0.076082
0.0758056
0.075487
0.0751278
0.07473
0.0742959
0.0738276
0.0733275
0.0727982
0.0722424
0.0716629
0.0710626
0.0704446
0.0698121
0.0691684
0.0685167
0.0678606
0.0672034
0.0665487
0.0659
0.0652609
0.0646346
0.0640246
0.0634342
0.0628665
0.0623244
0.0618103
0.0613287
0.0608836
0.0604503
0.0600042
0.00839239
0.00780484
0.00726002
0.00672458
0.00616297
0.00557913
0.00497771
0.00436065
0.00373022
0.00308912
0.00244009
0.00178602
0.00112986
0.000474536
-0.000176963
-0.000821625
-0.00145646
-0.00207854
-0.00268501
-0.00327312
-0.00384024
-0.00438382
-0.0049014
-0.0053906
-0.00584918
-0.00627506
-0.0066663
-0.00702108
-0.00733774
-0.00761471
-0.00785054
-0.00804392
-0.00819364
-0.00829866
-0.00835804
-0.00837099
-0.00833679
-0.00825485
-0.0081247
-0.00794595
-0.00771836
-0.0074418
-0.0071162
-0.00674161
-0.00631813
-0.00584599
-0.00532548
-0.004757
-0.00414105
-0.00347819
-0.00276906
-0.00201436
-0.00121487
-0.000371455
0.000514963
0.00144339
0.00241278
0.00342204
0.00447
0.00555544
0.00667708
0.00783359
0.00902358
0.0102456
0.0114983
0.01278
0.0140892
0.0154242
0.0167834
0.0181652
0.0195678
0.0209894
0.0224283
0.0238828
0.0253509
0.0268308
0.0283206
0.0298184
0.0313223
0.0328304
0.0343407
0.0358513
0.0373601
0.0388653
0.0403648
0.0418568
0.0433391
0.0448099
0.0462672
0.0477091
0.0491336
0.0505388
0.0519228
0.0532838
0.0546199
0.0559293
0.0572103
0.058461
0.0596798
0.060865
0.062015
0.0631283
0.0642033
0.0652386
0.0662328
0.0671847
0.0680929
0.0689562
0.0697737
0.0705442
0.0712668
0.0719407
0.0725651
0.0731394
0.0736629
0.0741353
0.0745562
0.0749253
0.0752426
0.075508
0.0757216
0.0758837
0.0759946
0.0760548
0.0760649
0.0760257
0.0759381
0.0758031
0.0756218
0.0753955
0.0751257
0.0748139
0.074462
0.0740716
0.0736449
0.073184
0.0726911
0.0721686
0.0716191
0.0710451
0.0704495
0.0698351
0.0692048
0.0685616
0.0679087
0.0672492
0.0665862
0.065923
0.0652627
0.0646086
0.0639636
0.0633308
0.062713
0.0621131
0.0615333
0.0609758
0.060445
0.0599448
0.0594436
0.0589115
0.00950491
0.00882826
0.00821251
0.00761882
0.00700477
0.00637427
0.00573199
0.00507948
0.00441857
0.00375156
0.00308084
0.00240888
0.00173827
0.00107165
0.000411693
-0.000238885
-0.000877385
-0.00150118
-0.00210769
-0.00269444
-0.003259
-0.00379901
-0.00431219
-0.00479635
-0.00524945
-0.00566957
-0.00605493
-0.00640384
-0.00671473
-0.00698614
-0.00721673
-0.00740526
-0.00755063
-0.00765186
-0.00770808
-0.00771855
-0.00768259
-0.00759966
-0.00746932
-0.00729123
-0.00706518
-0.00679104
-0.00646878
-0.00609844
-0.00568013
-0.00521408
-0.0047006
-0.00414009
-0.00353304
-0.00287999
-0.00218158
-0.00143849
-0.000651497
0.000178561
0.00105077
0.00196417
0.00291774
0.00391041
0.00494103
0.0060084
0.00711128
0.00824837
0.0094183
0.0106197
0.0118511
0.013111
0.014398
0.0157102
0.0170463
0.0184045
0.0197831
0.0211805
0.0225949
0.0240246
0.0254677
0.0269224
0.0283869
0.0298593
0.0313378
0.0328204
0.0343052
0.0357903
0.0372739
0.0387538
0.0402284
0.0416955
0.0431532
0.0445997
0.046033
0.0474513
0.0488525
0.0502348
0.0515965
0.0529356
0.0542503
0.0555389
0.0567995
0.0580306
0.0592304
0.0603972
0.0615296
0.0626259
0.0636847
0.0647045
0.0656841
0.066622
0.0675172
0.0683683
0.0691744
0.0699344
0.0706474
0.0713125
0.071929
0.0724963
0.0730137
0.0734809
0.0738975
0.0742631
0.0745778
0.0748414
0.0750541
0.075216
0.0753276
0.0753892
0.0754014
0.0753649
0.0752806
0.0751494
0.0749724
0.0747508
0.0744861
0.0741796
0.0738331
0.0734483
0.073027
0.0725712
0.0720832
0.0715651
0.0710193
0.0704482
0.0698545
0.0692408
0.0686097
0.0679641
0.0673069
0.0666409
0.065969
0.0652942
0.0646192
0.063947
0.0632804
0.0626219
0.0619741
0.0613394
0.0607197
0.0601169
0.0595352
0.0589786
0.0584089
0.0577909
0.0106323
0.00986715
0.00918035
0.00852772
0.00786009
0.00718142
0.00649649
0.0058065
0.00511288
0.00441756
0.00372258
0.00303008
0.00234234
0.00166171
0.000990582
0.000331383
-0.000313479
-0.000941655
-0.00155084
-0.00213876
-0.00270318
-0.00324194
-0.00375294
-0.0042342
-0.00468385
-0.00510014
-0.00548142
-0.00582613
-0.0061328
-0.00640009
-0.00662673
-0.00681162
-0.00695371
-0.00705211
-0.00710602
-0.00711472
-0.00707761
-0.00699419
-0.00686406
-0.00668692
-0.00646259
-0.00619097
-0.00587204
-0.00550583
-0.00509249
-0.00463225
-0.00412543
-0.00357243
-0.00297374
-0.00232989
-0.0016415
-0.000909251
-0.00013391
0.000683696
0.00154268
0.00244209
0.00338095
0.00435818
0.00537268
0.00642327
0.00750872
0.00862775
0.00977906
0.0109613
0.012173
0.0134127
0.0146789
0.0159701
0.0172846
0.018621
0.0199774
0.0213523
0.022744
0.0241506
0.0255706
0.027002
0.0284431
0.029892
0.0313469
0.0328059
0.0342671
0.0357288
0.0371889
0.0386456
0.040097
0.0415412
0.0429763
0.0444004
0.0458116
0.047208
0.0485878
0.0499492
0.0512902
0.0526092
0.0539043
0.0551737
0.0564158
0.0576289
0.0588112
0.0599612
0.0610774
0.0621582
0.0632022
0.0642079
0.0651741
0.0660994
0.0669826
0.0678226
0.0686183
0.0693687
0.0700729
0.07073
0.0713393
0.0719001
0.072412
0.0728743
0.0732868
0.0736492
0.0739613
0.0742232
0.0744348
0.0745963
0.0747081
0.0747705
0.0747841
0.0747496
0.0746677
0.0745393
0.0743655
0.0741474
0.0738864
0.0735837
0.073241
0.0728599
0.0724421
0.0719895
0.0715042
0.0709882
0.0704438
0.0698732
0.0692788
0.0686631
0.0680285
0.0673778
0.0667134
0.0660381
0.0653545
0.0646652
0.0639728
0.0632799
0.0625889
0.0619022
0.0612221
0.0605505
0.0598891
0.0592393
0.0586056
0.0579918
0.0573534
0.0566499
0.0117676
0.0109148
0.0101571
0.0094451
0.0087231
0.00799514
0.00726612
0.00653696
0.0058087
0.00508295
0.00436147
0.00364612
0.00293888
0.00224185
0.00155713
0.000886851
0.000233161
-0.000401841
-0.00101607
-0.00160746
-0.00217396
-0.00271361
-0.0032245
-0.00370485
-0.00415295
-0.0045672
-0.00494608
-0.00528815
-0.00559205
-0.00585655
-0.00608049
-0.00626284
-0.00640267
-0.00649914
-0.00655151
-0.00655913
-0.00652144
-0.00643799
-0.00630844
-0.00613252
-0.00591009
-0.00564106
-0.00532542
-0.00496323
-0.00455465
-0.00409993
-0.0035994
-0.00305347
-0.0024626
-0.00182733
-0.00114827
-0.000426111
0.000338401
0.00114445
0.00199116
0.00287762
0.00380284
0.00476579
0.00576537
0.00680042
0.00786973