/*--------------------------------*- C++ -*----------------------------------*\
  =========                 |
  \\      /  F ield         | OpenFOAM: The Open Source CFD Toolbox
   \\    /   O peration     | Website:  https://openfoam.org
    \\  /    A nd           | Version:  7
     \\/     M anipulation  |
\*---------------------------------------------------------------------------*/
FoamFile
{
    version     2.0;
    format      ascii;
    class       volScalarField;
    location    "0.425";
    object      p;
}
// * * * * * * * * * * * * * * * * * * * * * * * * * * * * * * * * * * * * * //

dimensions      [0 2 -2 0 0 0 0];

internalField   nonuniform List<scalar> 
25600
(
3.99197e-06
0.000118683
0.000148014
3.98902e-05
-0.000213406
-0.000607799
-0.00113228
-0.00177231
-0.00251245
-0.00333747
-0.00423288
-0.00518506
-0.00618139
-0.00721019
-0.00826079
-0.00932335
-0.0103889
-0.0114491
-0.0124964
-0.0135239
-0.0145251
-0.0154945
-0.0164266
-0.0173167
-0.0181604
-0.0189538
-0.0196932
-0.0203755
-0.0209977
-0.0215573
-0.0220521
-0.0224799
-0.0228391
-0.0231281
-0.0233458
-0.023491
-0.0235628
-0.0235607
-0.0234842
-0.0233329
-0.0231068
-0.0228059
-0.0224303
-0.0219804
-0.0214567
-0.0208597
-0.0201901
-0.0194488
-0.0186368
-0.017755
-0.0168046
-0.0157868
-0.0147031
-0.0135548
-0.0123435
-0.0110707
-0.00973818
-0.00834763
-0.0069009
-0.00539988
-0.00384654
-0.0022429
-0.000591058
0.00110685
0.00284862
0.00463199
0.00645467
0.00831429
0.0102085
0.0121347
0.0140906
0.0160736
0.018081
0.0201105
0.0221592
0.0242245
0.0263038
0.0283944
0.0304934
0.0325982
0.034706
0.036814
0.0389193
0.0410193
0.0431111
0.0451919
0.0472588
0.0493091
0.05134
0.0533487
0.0553323
0.0572883
0.0592138
0.0611061
0.0629626
0.0647806
0.0665575
0.0682908
0.069978
0.0716165
0.0732042
0.0747384
0.0762172
0.0776381
0.0789992
0.0802983
0.0815336
0.0827032
0.0838053
0.0848383
0.0858007
0.086691
0.087508
0.0882504
0.0889173
0.0895077
0.090021
0.0904565
0.0908138
0.0910927
0.091293
0.0914149
0.0914586
0.0914247
0.0913139
0.091127
0.0908652
0.0905299
0.0901226
0.0896454
0.0891002
0.0884895
0.0878161
0.0870828
0.0862932
0.0854507
0.0845596
0.0836241
0.0826491
0.0816398
0.0806019
0.0795415
0.0784654
0.0773809
0.0762956
0.0752181
0.0741576
0.0731239
0.0721278
0.0711807
0.0702951
0.069484
0.0687615
0.068142
0.0676399
0.0672682
0.0670363
0.066946
0.0669864
0.0671018
-0.00010469
7.55403e-06
1.18874e-05
-0.000108996
-0.000351063
-0.000712584
-0.00118697
-0.00176379
-0.00243107
-0.00317645
-0.00398772
-0.00485307
-0.00576128
-0.00670177
-0.00766469
-0.00864091
-0.00962196
-0.0106
-0.0115679
-0.0125188
-0.0134468
-0.0143461
-0.0152118
-0.0160389
-0.0168234
-0.0175612
-0.0182488
-0.018883
-0.019461
-0.0199801
-0.0204381
-0.020833
-0.0211629
-0.0214263
-0.021622
-0.0217487
-0.0218057
-0.0217922
-0.0217077
-0.0215518
-0.0213244
-0.0210254
-0.0206549
-0.0202132
-0.0197006
-0.0191178
-0.0184653
-0.0177438
-0.0169544
-0.0160978
-0.0151753
-0.014188
-0.0131371
-0.012024
-0.0108501
-0.00961703
-0.00832632
-0.00697967
-0.00557882
-0.00412558
-0.00262185
-0.00106957
0.000529253
0.00217255
0.0038582
0.00558403
0.00734781
0.00914727
0.0109801
0.0128439
0.0147363
0.0166549
0.0185971
0.0205605
0.0225425
0.0245406
0.0265521
0.0285745
0.030605
0.032641
0.0346798
0.0367188
0.0387553
0.0407864
0.0428096
0.0448221
0.0468211
0.048804
0.0507681
0.0527107
0.0546291
0.0565206
0.0583827
0.0602127
0.062008
0.0637662
0.0654846
0.0671609
0.0687927
0.0703776
0.0719132
0.0733975
0.0748281
0.076203
0.0775203
0.0787779
0.079974
0.0811068
0.0821748
0.0831763
0.0841098
0.0849742
0.0857681
0.0864904
0.0871403
0.0877169
0.0882196
0.0886477
0.0890011
0.0892794
0.0894827
0.0896111
0.089665
0.0896449
0.0895515
0.0893859
0.0891491
0.0888425
0.0884679
0.0880271
0.0875221
0.0869555
0.08633
0.0856484
0.0849141
0.0841307
0.0833022
0.0824329
0.0815274
0.0805909
0.0796289
0.0786473
0.0776525
0.0766514
0.0756516
0.074661
0.0736882
0.0727423
0.0718332
0.0709712
0.0701672
0.0694328
0.0687796
0.0682193
0.0677628
0.0674195
0.0671944
0.0670879
0.0671018
0.0672172
-0.00013287
3.67617e-06
8.02945e-06
-0.000114112
-0.000346248
-0.000685293
-0.00112578
-0.00165899
-0.00227485
-0.00296284
-0.00371233
-0.00451289
-0.00535445
-0.00622738
-0.00712259
-0.00803153
-0.00894628
-0.00985943
-0.0107641
-0.011654
-0.0125231
-0.013366
-0.0141779
-0.0149539
-0.0156901
-0.0163826
-0.0170278
-0.0176226
-0.0181642
-0.01865
-0.0190777
-0.0194452
-0.0197509
-0.0199931
-0.0201705
-0.0202819
-0.0203265
-0.0203035
-0.0202123
-0.0200525
-0.0198239
-0.0195265
-0.0191602
-0.0187253
-0.0182221
-0.0176511
-0.0170129
-0.0163081
-0.0155376
-0.0147022
-0.0138031
-0.0128413
-0.011818
-0.0107345
-0.00959214
-0.00839248
-0.00713699
-0.00582731
-0.0044651
-0.00305213
-0.0015902
-8.12134e-05
0.0014729
0.00307015
0.00470847
0.00638576
0.00809986
0.00984857
0.0116296
0.0134408
0.0152797
0.0171439
0.0190311
0.0209388
0.0228646
0.0248059
0.0267602
0.028725
0.0306977
0.0326758
0.0346565
0.0366374
0.0386157
0.0405889
0.0425542
0.0445092
0.0464511
0.0483772
0.0502851
0.0521721
0.0540355
0.0558729
0.0576816
0.0594592
0.0612031
0.062911
0.0645803
0.0662088
0.0677941
0.0693339
0.070826
0.0722682
0.0736586
0.074995
0.0762755
0.0774983
0.0786616
0.0797638
0.0808031
0.0817783
0.0826878
0.0835304
0.0843051
0.0850107
0.0856464
0.0862115
0.0867053
0.0871273
0.0874774
0.0877553
0.087961
0.0880948
0.0881571
0.0881484
0.0880695
0.0879213
0.0877051
0.0874223
0.0870745
0.0866636
0.0861917
0.0856613
0.0850749
0.0844355
0.0837463
0.0830109
0.0822333
0.0814174
0.0805681
0.07969
0.0787887
0.0778698
0.0769395
0.0760044
0.0750716
0.0741486
0.0732435
0.0723647
0.0715214
0.0707229
0.0699791
0.0693001
0.0686959
0.0681766
0.0677514
0.067428
0.0672107
0.0671015
0.0671156
0.0672578
-2.50331e-05
0.000124717
0.000130625
8.56906e-06
-0.000217634
-0.000542902
-0.000961526
-0.00146531
-0.00204524
-0.00269188
-0.00339574
-0.0041474
-0.00493775
-0.00575799
-0.00659971
-0.00745496
-0.00831627
-0.00917666
-0.0100296
-0.0108691
-0.0116894
-0.0124854
-0.0132522
-0.0139853
-0.0146808
-0.0153348
-0.015944
-0.0165052
-0.0170157
-0.0174729
-0.0178746
-0.0182187
-0.0185035
-0.0187273
-0.0188889
-0.0189871
-0.0190209
-0.0189896
-0.0188926
-0.0187295
-0.0185
-0.0182039
-0.0178413
-0.0174124
-0.0169174
-0.0163568
-0.0157311
-0.015041
-0.0142871
-0.0134704
-0.0125919
-0.0116526
-0.0106536
-0.00959616
-0.00848166
-0.00731147
-0.00608707
-0.00481002
-0.00348195
-0.00210454
-0.000679552
0.000791184
0.00230579
0.00386233
0.00545881
0.00709318
0.00876336
0.0104672
0.0122025
0.013967
0.0157586
0.0175748
0.0194133
0.0212718
0.0231478
0.0250389
0.0269427
0.0288567
0.0307783
0.0327051
0.0346345
0.036564
0.038491
0.0404129
0.0423273
0.0442314
0.0461229
0.047999
0.0498573
0.0516952
0.0535102
0.0552999
0.0570616
0.0587931
0.0604918
0.0621554
0.0637815
0.0653679
0.0669122
0.0684124
0.0698662
0.0712717
0.0726266
0.0739292
0.0751776
0.0763699
0.0775044
0.0785797
0.079594
0.0805461
0.0814346
0.0822582
0.0830161
0.083707
0.0843304
0.0848853
0.0853714
0.0857881
0.0861352
0.0864126
0.0866205
0.0867589
0.0868284
0.0868294
0.0867629
0.0866298
0.0864313
0.0861688
0.085844
0.0854587
0.0850149
0.0845152
0.083962
0.0833583
0.0827073
0.0820124
0.0812774
0.0805064
0.0797038
0.0788744
0.0780233
0.077156
0.0762784
0.0753968
0.0745179
0.0736488
0.0727971
0.0719708
0.071178
0.0704275
0.0697283
0.0690893
0.0685197
0.0680283
0.0676235
0.0673127
0.0671008
0.0669919
0.0670091
0.0671681
0.000227577
0.000366895
0.000363269
0.000235361
9.08485e-06
-0.000309233
-0.000713593
-0.00119618
-0.0017487
-0.00236266
-0.00302946
-0.00374058
-0.00448772
-0.00526284
-0.00605821
-0.00686646
-0.0076806
-0.00849407
-0.00930071
-0.0100948
-0.0108709
-0.0116241
-0.0123498
-0.0130435
-0.0137015
-0.01432
-0.0148959
-0.015426
-0.0159075
-0.0163381
-0.0167155
-0.0170376
-0.0173028
-0.0175094
-0.0176562
-0.0177419
-0.0177656
-0.0177266
-0.0176242
-0.0174579
-0.0172275
-0.0169328
-0.0165739
-0.0161507
-0.0156636
-0.015113
-0.0144994
-0.0138233
-0.0130854
-0.0122867
-0.0114279
-0.0105102
-0.00953451
-0.00850217
-0.0074144
-0.00627254
-0.00507803
-0.00383236
-0.0025371
-0.0011939
0.000195546
0.00162947
0.00310606
0.00462342
0.00617963
0.0077727
0.00940059
0.0110612
0.0127525
0.0144722
0.0162181
0.0179881
0.0197797
0.0215908
0.023419
0.0252618
0.027117
0.028982
0.0308545
0.032732
0.034612
0.0364921
0.0383698
0.0402425
0.0421078
0.0439631
0.0458061
0.0476342
0.0494448
0.0512357
0.0530042
0.054748
0.0564647
0.0581519
0.0598072
0.0614284
0.0630131
0.0645591
0.0660643
0.0675266
0.0689438
0.0703139
0.0716351
0.0729053
0.0741229
0.075286
0.0763931
0.0774426
0.0784331
0.0793631
0.0802315
0.0810371
0.0817788
0.0824558
0.0830673
0.0836126
0.0840912
0.0845028
0.0848471
0.085124
0.0853337
0.0854764
0.0855525
0.0855627
0.0855078
0.0853887
0.0852067
0.0849631
0.0846596
0.0842981
0.0838805
0.0834093
0.0828869
0.0823162
0.0817004
0.0810427
0.0803468
0.0796167
0.0788567
0.0780714
0.0772656
0.0764447
0.0756142
0.0747801
0.0739488
0.0731269
0.0723216
0.07154
0.07079
0.0700794
0.0694165
0.0688093
0.0682662
0.0677951
0.0674039
0.0670997
0.066888
0.0667742
0.0667844
0.0669375
0.000621164
0.000728725
0.00070312
0.000561433
0.000327836
9.15225e-06
-0.000388501
-0.000857715
-0.00139086
-0.00198022
-0.00261801
-0.00329647
-0.00400803
-0.00474533
-0.00550129
-0.00626909
-0.00704225
-0.00781459
-0.00858034
-0.00933406
-0.0100707
-0.0107854
-0.0114739
-0.012132
-0.0127558
-0.013342
-0.0138873
-0.0143888
-0.0148438
-0.0152498
-0.0156047
-0.0159065
-0.0161536
-0.0163442
-0.0164772
-0.0165514
-0.0165658
-0.0165195
-0.0164121
-0.016243
-0.0160119
-0.0157186
-0.0153632
-0.0149456
-0.0144661
-0.013925
-0.0133229
-0.0126602
-0.0119376
-0.011156
-0.0103161
-0.009419
-0.00846568
-0.00745729
-0.00639505
-0.00528027
-0.00411432
-0.00289865
-0.00163478
-0.000324292
0.00103117
0.00242989
0.00387011
0.00535
0.00686768
0.00842123
0.0100087
0.011628
0.0132771
0.0149539
0.0166562
0.0183819
0.0201287
0.0218945
0.0236768
0.0254735
0.0272821
0.0291004
0.0309259
0.0327563
0.0345891
0.036422
0.0382525
0.0400782
0.0418966
0.0437054
0.0455021
0.0472842
0.0490495
0.0507954
0.0525195
0.0542197
0.0558934
0.0575383
0.0591523
0.0607331
0.0622783
0.063786
0.0652539
0.0666801
0.0680624
0.069399
0.070688
0.0719275
0.0731158
0.0742512
0.0753322
0.0763573
0.0773251
0.0782342
0.0790835
0.0798719
0.0805984
0.0812621
0.0818623
0.0823984
0.0828699
0.0832765
0.083618
0.0838943
0.0841056
0.0842522
0.0843345
0.0843531
0.0843088
0.0842026
0.0840358
0.0838097
0.0835259
0.0831862
0.0827926
0.0823475
0.0818533
0.0813128
0.080729
0.0801051
0.0794447
0.0787516
0.0780299
0.0772841
0.0765187
0.0757389
0.07495
0.0741576
0.0733675
0.0725862
0.0718202
0.0710762
0.0703615
0.0696831
0.0690487
0.0684656
0.0679414
0.0674833
0.0670986
0.0667944
0.0665761
0.0664501
0.0664413
0.0665675
0.00114521
0.00120404
0.0011451
0.000981446
0.000732989
0.000406516
8.08211e-06
-0.000455387
-0.000976882
-0.0015494
-0.00216589
-0.0028193
-0.00350271
-0.00420937
-0.00493277
-0.00566666
-0.00640502
-0.00714209
-0.00787246
-0.008591
-0.00929292
-0.00997373
-0.0106292
-0.0112554
-0.0118488
-0.0124058
-0.0129236
-0.0133992
-0.01383
-0.0142137
-0.0145482
-0.0148315
-0.0150619
-0.015238
-0.0153584
-0.015422
-0.0154278
-0.0153751
-0.0152632
-0.0150916
-0.0148599
-0.0145681
-0.0142161
-0.0138038
-0.0133316
-0.0127996
-0.0122084
-0.0115585
-0.0108504
-0.010085
-0.00926304
-0.00838547
-0.0074533
-0.00646762
-0.0054296
-0.0043405
-0.00320164
-0.00201443
-0.000780323
0.000499137
0.00182236
0.00318768
0.00459339
0.00603771
0.00751883
0.00903488
0.0105839
0.012164
0.0137731
0.0154092
0.0170701
0.0187538
0.0204582
0.0221809
0.0239198
0.0256726
0.0274371
0.029211
0.030992
0.0327777
0.0345658
0.0363539
0.0381397
0.0399208
0.0416949
0.0434595
0.0452124
0.0469511
0.0486733
0.0503767
0.0520589
0.0537177
0.0553508
0.0569559
0.0585308
0.0600734
0.0615814
0.0630528
0.0644855
0.0658776
0.0672271
0.068532
0.0697906
0.0710011
0.0721619
0.0732712
0.0743277
0.0753298
0.0762762
0.0771656
0.0779969
0.0787691
0.0794812
0.0801323
0.0807219
0.0812493
0.0817141
0.0821159
0.0824546
0.0827302
0.0829429
0.0830929
0.0831806
0.0832068
0.0831722
0.0830778
0.0829248
0.0827145
0.0824485
0.0821287
0.0817569
0.0813354
0.0808666
0.0803532
0.0797981
0.0792045
0.0785757
0.0779155
0.0772277
0.0765166
0.0757867
0.0750426
0.0742895
0.0735327
0.0727777
0.0720304
0.0712968
0.0705834
0.0698966
0.0692431
0.0686296
0.0680631
0.0675503
0.0670981
0.066713
0.0664018
0.0661699
0.0660238
0.0659849
0.0660673
0.00178592
0.00178303
0.00168101
0.00148769
0.00121718
0.000875916
0.000469736
4.98737e-06
-0.000511935
-0.00107467
-0.00167685
-0.00231211
-0.00297412
-0.00365671
-0.0043539
-0.00505992
-0.00576922
-0.00647649
-0.00717663
-0.00786486
-0.00853665
-0.00918775
-0.0098142
-0.0104122
-0.0109784
-0.0115096
-0.0120027
-0.012455
-0.0128641
-0.0132276
-0.0135436
-0.0138101
-0.0140256
-0.0141884
-0.0142974
-0.0143514
-0.0143495
-0.0142909
-0.0141749
-0.0140012
-0.0137693
-0.013479
-0.0131303
-0.0127232
-0.0122578
-0.0117346
-0.0111538
-0.010516
-0.00982168
-0.00907166
-0.00826669
-0.00740767
-0.00649555
-0.00553138
-0.00451632
-0.00345155
-0.00233837
-0.00117812
2.77693e-05
0.00127781
0.00257047
0.00390412
0.00527711
0.00668773
0.00813418
0.00961467
0.0111273
0.0126702
0.0142414
0.0158388
0.0174606
0.0191045
0.0207685
0.0224504
0.0241481
0.0258595
0.0275822
0.029314
0.0310528
0.0327962
0.0345419
0.0362876
0.0380311
0.0397701
0.0415022
0.043225
0.0449365
0.0466341
0.0483156
0.0499788
0.0516214
0.0532412
0.0548359
0.0564033
0.0579414
0.0594479
0.0609207
0.062358
0.0637575
0.0651175
0.066436
0.0677111
0.0689411
0.0701244
0.0712591
0.0723439
0.0733772
0.0743577
0.075284
0.0761549
0.0769693
0.0777262
0.0784247
0.079064
0.0796435
0.0801627
0.080621
0.0810182
0.0813542
0.081629
0.0818427
0.0819957
0.0820883
0.0821213
0.0820954
0.0820115
0.0818709
0.081675
0.0814251
0.081123
0.0807708
0.0803705
0.0799245
0.0794353
0.0789058
0.078339
0.0777382
0.0771069
0.0764489
0.0757681
0.0750687
0.0743554
0.0736328
0.072906
0.0721802
0.0714608
0.0707534
0.070064
0.0693984
0.0687629
0.0681637
0.0676068
0.0670987
0.0666456
0.0662536
0.0659286
0.0656762
0.0655026
0.0654238
0.0654493
0.00252873
0.00245452
0.00230149
0.00207172
0.00177265
0.00141022
0.000989973
0.000517588
-1.17044e-06
-0.000560535
-0.00115476
-0.0017781
-0.00242484
-0.00308935
-0.00376613
-0.00444986
-0.00513545
-0.00581796
-0.00649269
-0.00715515
-0.0078011
-0.00842653
-0.00902769
-0.00960107
-0.0101434
-0.0106515
-0.0111227
-0.0115543
-0.011944
-0.0122895
-0.0125889
-0.0128403
-0.0130422
-0.0131931
-0.0132918
-0.0133372
-0.0133284
-0.0132646
-0.0131451
-0.0129696
-0.0127376
-0.0124489
-0.0121035
-0.0117014
-0.0112428
-0.0107278
-0.0101569
-0.00953061
-0.00884941
-0.008114
-0.00732514
-0.00648368
-0.00559056
-0.00464679
-0.00365346
-0.00261174
-0.00152288
-0.00038818
0.000790983
0.00201317
0.00327687
0.00458052
0.00592252
0.00730119
0.00871481
0.0101616
0.0116398
0.0131474
0.0146827
0.0162436
0.0178281
0.0194344
0.0210602
0.0227035
0.0243622
0.0260343
0.0277174
0.0294095
0.0311083
0.0328116
0.0345172
0.0362229
0.0379264
0.0396255
0.0413179
0.0430013
0.0446736
0.0463324
0.0479755
0.0496008
0.051206
0.0527889
0.0543474
0.0558793
0.0573826
0.0588551
0.0602949
0.0616999
0.0630682
0.064398
0.0656873
0.0669343
0.0681375
0.069295
0.0704054
0.0714671
0.0724787
0.0734388
0.0743461
0.0751996
0.0759981
0.0767406
0.0774264
0.0780546
0.0786245
0.0791358
0.079588
0.0799808
0.0803141
0.0805879
0.0808024
0.0809579
0.0810548
0.0810937
0.0810756
0.0810012
0.0808717
0.0806885
0.080453
0.0801669
0.0798321
0.0794507
0.0790249
0.0785572
0.0780503
0.0775071
0.0769308
0.0763247
0.0756923
0.0750376
0.0743645
0.0736771
0.0729801
0.0722782
0.0715761
0.0708789
0.0701919
0.0695205
0.0688701
0.0682465
0.0676552
0.0671019
0.0665923
0.0661321
0.0657269
0.0653821
0.0651029
0.0648951
0.0647685
0.0647272
0.00335945
0.00320707
0.00299685
0.00272489
0.00239157
0.0020023
0.00156232
0.00107661
0.000550252
-1.1542e-05
-0.000603585
-0.00122071
-0.00185777
-0.00250966
-0.00317135
-0.00383797
-0.00450478
-0.00516728
-0.00582109
-0.00646204
-0.00708618
-0.00768974
-0.00826919
-0.00882121
-0.00934271
-0.00983078
-0.0102827
-0.0106961
-0.0110685
-0.011398
-0.0116826
-0.0119206
-0.0121104
-0.0122507
-0.0123402
-0.012378
-0.012363
-0.0122947
-0.0121722
-0.0119952
-0.0117634
-0.0114765
-0.0111344
-0.0107372
-0.0102849
-0.0097779
-0.00921648
-0.0086011
-0.00793231
-0.00721075
-0.00643715
-0.00561233
-0.00473719
-0.00381271
-0.00283995
-0.00182005
-0.000754187
0.000356351
0.00151023
0.00270606
0.00394238
0.00521766
0.00653035
0.00787881
0.00926137
0.0106763
0.0121219
0.0135962
0.0150975
0.0166238
0.0181732
0.0197438
0.0213335
0.0229403
0.0245622
0.0261971
0.0278428
0.0294973
0.0311584
0.0328239
0.0344917
0.0361596
0.0378253
0.0394867
0.0411417
0.0427879
0.0444232
0.0460454
0.0476524
0.0492419
0.0508119
0.0523601
0.0538845
0.055383
0.0568536
0.0582941
0.0597028
0.0610775
0.0624165
0.0637178
0.0649797
0.0662004
0.0673783
0.0685118
0.0695993
0.0706393
0.0716304
0.0725714
0.0734611
0.0742981
0.0750817
0.0758107
0.0764845
0.0771021
0.0776631
0.0781669
0.0786132
0.0790017
0.0793323
0.079605
0.07982
0.0799776
0.0800781
0.0801224
0.080111
0.080045
0.0799254
0.0797535
0.0795307
0.0792587
0.0789393
0.0785745
0.0781665
0.0777176
0.0772304
0.0767077
0.0761526
0.0755681
0.0749578
0.0743251
0.073674
0.0730083
0.0723322
0.0716502
0.0709668
0.0702867
0.0696148
0.0689559
0.0683151
0.0676977
0.0671087
0.0665533
0.0660367
0.0655638
0.0651398
0.0647696
0.064458
0.0642104
0.0640298
0.0639146
0.0042647
0.00402941
0.00375733
0.00343854
0.00306612
0.00264507
0.00218034
0.00167622
0.00113715
0.000567734
-2.7351e-05
-0.000643449
-0.00127593
-0.00192019
-0.00257167
-0.0032259
-0.00387854
-0.00452542
-0.00516251
-0.00578595
-0.00639206
-0.00697732
-0.00753843
-0.00807227
-0.00857591
-0.00904662
-0.00948186
-0.00987927
-0.0102367
-0.0105521
-0.0108237
-0.0110498
-0.011229
-0.0113599
-0.0114414
-0.0114724
-0.0114521
-0.0113798
-0.0112549
-0.0110769
-0.0108454
-0.0105604
-0.0102216
-0.00982907
-0.009383
-0.0088836
-0.00833119
-0.00772621
-0.00706919
-0.00636076
-0.0056016
-0.00479252
-0.00393438
-0.00302814
-0.00207481
-0.0010755
-3.1372e-05
0.00105635
0.00218636
0.0033573
0.00456775
0.00581625
0.00710126
0.0084212
0.00977444
0.0111593
0.0125741
0.0140169
0.0154861
0.0169798
0.0184961
0.020033
0.0215887
0.0231611
0.0247482
0.0263481
0.0279585
0.0295776
0.0312031
0.032833
0.0344651
0.0360973
0.0377275
0.0393535
0.0409731
0.0425843
0.0441849
0.0457727
0.0473456
0.0489015
0.0504383
0.051954
0.0534464
0.0549135
0.0563533
0.0577639
0.0591433
0.0604897
0.0618011
0.0630758
0.064312
0.0655081
0.0666623
0.0677732
0.0688392
0.069859
0.070831
0.0717541
0.0726271
0.0734489
0.0742184
0.0749348
0.0755973
0.076205
0.0767575
0.0772543
0.077695
0.0780793
0.0784072
0.0786786
0.0788938
0.079053
0.0791567
0.0792055
0.0792
0.0791413
0.0790303
0.0788683
0.0786567
0.0783971
0.0780911
0.0777408
0.0773482
0.0769155
0.0764454
0.0759403
0.0754032
0.074837
0.0742451
0.0736308
0.0729976
0.0723494
0.0716899
0.0710234
0.070354
0.0696862
0.0690243
0.068373
0.0677368
0.0671204
0.0665286
0.065966
0.0654372
0.0649467
0.064499
0.0640984
0.0637497
0.0634576
0.0632182
0.0630241
0.0052321
0.00491078
0.00457342
0.00420409
0.00378859
0.00333152
0.00283768
0.00231069
0.00175434
0.00117269
0.000569898
-4.98596e-05
-0.000682406
-0.00132359
-0.00196931
-0.00261551
-0.0032582
-0.00389354
-0.00451782
-0.00512747
-0.0057191
-0.00628942
-0.00683536
-0.00735399
-0.00784257
-0.00829853
-0.00871948
-0.00910318
-0.00944757
-0.00975078
-0.0100111
-0.0102269
-0.0103968
-0.0105195
-0.010594
-0.0106192
-0.0105944
-0.0105188
-0.0103919
-0.0102132
-0.00998237
-0.00969927
-0.00936378
-0.00897592
-0.00853582
-0.0080437
-0.00749989
-0.0069048
-0.00625895
-0.00556293
-0.00481743
-0.00402321
-0.00318113
-0.00229209
-0.0013571
-0.000377211
0.000646435
0.00171264
0.00282015
0.00396763
0.00515372
0.00637697
0.0076359
0.00892896
0.0102546
0.0116111
0.0129968
0.0144101
0.0158491
0.017312
0.0187971
0.0203023
0.0218259
0.0233659
0.0249203
0.0264872
0.0280645
0.0296502
0.0312422
0.0328386
0.0344372
0.0360359
0.0376326
0.0392253
0.0408119
0.0423902
0.0439581
0.0455136
0.0470546
0.048579
0.0500847
0.0515698
0.0530322
0.0544699
0.055881
0.0572635
0.0586155
0.0599353
0.061221
0.0624708
0.063683
0.064856
0.0659882
0.067078
0.068124
0.0691248
0.070079
0.0709854
0.0718429
0.0726503
0.0734068
0.0741113
0.0747631
0.0753616
0.0759061
0.0763962
0.0768315
0.0772118
0.077537
0.077807
0.0780222
0.0781826
0.0782889
0.0783414
0.078341
0.0782886
0.078185
0.0780316
0.0778297
0.0775807
0.0772863
0.0769484
0.076569
0.0761502
0.0756945
0.0752042
0.0746822
0.0741312
0.0735543
0.0729548
0.0723359
0.0717013
0.0710545
0.0703993
0.0697396
0.0690795
0.0684232
0.0677749
0.0671386
0.0665186
0.0659193
0.0653448
0.0647993
0.0642868
0.0638112
0.0633761
0.0629861
0.0626457
0.062344
0.0620677
0.00625035
0.00584107
0.00543599
0.00501329
0.00455146
0.00405486
0.00352814
0.00297434
0.00239671
0.00179873
0.00118408
0.000556472
-8.03402e-05
-0.000722619
-0.00136666
-0.00200878
-0.00264539
-0.00327295
-0.00388804
-0.00448739
-0.00506784
-0.00562637
-0.00616012
-0.00666635
-0.0071425
-0.00758617
-0.00799511
-0.00836723
-0.00870058
-0.00899337
-0.00924399
-0.00945094
-0.0096129
-0.00972865
-0.00979715
-0.00981747
-0.00978882
-0.00971055
-0.0095821
-0.00940307
-0.00917314
-0.00889213
-0.00855996
-0.00817663
-0.00774229
-0.00725715
-0.00672152
-0.00613582
-0.00550054
-0.00481626
-0.00408366
-0.00330346
-0.0024765
-0.00160367
-0.000685939
0.000275663
0.00128003
0.002326
0.00341234
0.00453776
0.00570093
0.00690043
0.00813484
0.00940263
0.0107023
0.0120321
0.0133906
0.014776
0.0161866
0.0176207
0.0190764
0.0205519
0.0220454
0.0235549
0.0250786
0.0266145
0.0281606
0.029715
0.0312757
0.0328406
0.0344077
0.035975
0.0375404
0.0391019
0.0406574
0.0422049
0.0437423
0.0452676
0.0467786
0.0482736
0.0497503
0.0512068
0.0526411
0.0540513
0.0554356
0.0567919
0.0581184
0.0594134
0.0606751
0.0619017
0.0630915
0.064243
0.0653546
0.0664248
0.0674522
0.0684353
0.0693729
0.0702638
0.0711068
0.0719009
0.0726451
0.0733386
0.0739806
0.0745703
0.0751073
0.0755911
0.0760213
0.0763977
0.0767201
0.0769887
0.0772035
0.0773649
0.0774731
0.0775288
0.0775327
0.0774855
0.0773883
0.0772422
0.0770484
0.0768085
0.076524
0.0761966
0.0758282
0.075421
0.0749772
0.0744991
0.0739893
0.0734506
0.0728856
0.0722976
0.0716895
0.0710649
0.0704269
0.0697792
0.0691253
0.068469
0.0678141
0.0671644
0.0665239
0.0658961
0.0652852
0.0646947
0.0641285
0.0635901
0.0630827
0.0626096
0.0621751
0.0617835
0.0614169
0.0610563
0.00730915
0.00681088
0.00633644
0.00585819
0.00534749
0.00480846
0.00424569
0.00366171
0.00305924
0.00244132
0.00181112
0.00117192
0.000527078
-0.000120053
-0.000766128
-0.00140784
-0.00204191
-0.00266513
-0.00327438
-0.00386664
-0.004439
-0.00498868
-0.00551301
-0.00600948
-0.00647569
-0.00690939
-0.0073085
-0.00767103
-0.00799519
-0.00827929
-0.00852179
-0.0087213
-0.00887656
-0.00898644
-0.00904994
-0.00906619
-0.00903445
-0.00895408
-0.00882459
-0.00864558
-0.00841676
-0.00813795
-0.0078091
-0.00743021
-0.00700143
-0.00652296
-0.00599513
-0.00541833
-0.00479305
-0.00411986
-0.0033994
-0.00263241
-0.00181967
-0.000962079
-6.05617e-05
0.000883868
0.00187014
0.00289711
0.00396358
0.0050683
0.00620996
0.0073872
0.0085986
0.00984269
0.011118
0.0124229
0.0137558
0.0151151
0.0164991
0.017906
0.0193342
0.0207818
0.0222471
0.0237281
0.025223
0.0267299
0.0282469
0.029772
0.0313033
0.0328388
0.0343765
0.0359144
0.0374505
0.0389829
0.0405094
0.0420281
0.043537
0.045034
0.0465172
0.0479846
0.0494343
0.0508641
0.0522724
0.053657
0.0550163
0.0563482
0.057651
0.058923
0.0601623
0.0613673
0.0625364
0.063668
0.0647605
0.0658125
0.0668225
0.0677893
0.0687115
0.069588
0.0704176
0.0711993
0.0719322
0.0726154
0.0732481
0.0738298
0.0743597
0.0748375
0.0752629
0.0756355
0.0759553
0.0762222
0.0764365
0.0765983
0.0767081
0.0767663
0.0767736
0.0767309
0.0766389
0.0764989
0.076312
0.0760795
0.0758031
0.0754844
0.0751252
0.0747274
0.0742931
0.0738248
0.0733246
0.0727953
0.0722394
0.0716598
0.0710594
0.0704413
0.0698087
0.0691649
0.0685132
0.0678569
0.0671996
0.0665449
0.0658961
0.0652569
0.0646305
0.0640204
0.0634299
0.0628622
0.0623199
0.0618058
0.0613242
0.0608791
0.0604458
0.0599997
0.00839914
0.00781156
0.00726672
0.00673133
0.00616974
0.00558595
0.0049845
0.00436746
0.00373708
0.003096
0.00244697
0.00179286
0.00113662
0.000481257
-0.000170226
-0.000814839
-0.00144963
-0.00207169
-0.00267818
-0.00326632
-0.00383344
-0.004377
-0.00489452
-0.00538369
-0.00584228
-0.00626821
-0.00665951
-0.00701438
-0.0073311
-0.00760811
-0.00784397
-0.00803738
-0.00818715
-0.00829222
-0.00835166
-0.00836465
-0.00833049
-0.00824861
-0.00811851
-0.00793985
-0.00771235
-0.00743587
-0.00711034
-0.00673579
-0.00631237
-0.0058403
-0.00531987
-0.0047515
-0.00413566
-0.00347291
-0.00276388
-0.00200928
-0.0012099
-0.000366585
0.000519736
0.00144808
0.0024174
0.00342658
0.00447446
0.00555982
0.00668136
0.00783776
0.00902764
0.0102496
0.011502
0.0127836
0.0140926
0.0154275
0.0167866
0.0181683
0.0195708
0.0209923
0.0224312
0.0238856
0.0253536
0.0268335
0.0283232
0.029821
0.0313249
0.032833
0.0343432
0.0358538
0.0373626
0.0388678
0.0403673
0.0418593
0.0433416
0.0448124
0.0462697
0.0477116
0.049136
0.0505412
0.0519252
0.0532862
0.0546222
0.0559315
0.0572124
0.058463
0.0596817
0.0608668
0.0620167
0.0631298
0.0642046
0.0652398
0.0662339
0.0671855
0.0680935
0.0689567
0.0697739
0.0705442
0.0712666
0.0719403
0.0725645
0.0731386
0.0736619
0.0741342
0.0745549
0.0749239
0.0752411
0.0755063
0.0757198
0.0758818
0.0759926
0.0760528
0.0760628
0.0760236
0.0759359
0.0758008
0.0756194
0.0753931
0.0751232
0.0748114
0.0744594
0.074069
0.0736422
0.0731812
0.0726882
0.0721657
0.0716161
0.0710421
0.0704463
0.0698317
0.0692013
0.0685581
0.0679052
0.0672456
0.0665825
0.0659191
0.0652588
0.0646046
0.0639595
0.0633266
0.0627088
0.0621087
0.0615289
0.0609714
0.0604405
0.0599403
0.0594391
0.058907
0.0095118
0.00883511
0.00821934
0.00762569
0.00701166
0.0063812
0.00573891
0.00508639
0.00442548
0.00375845
0.00308769
0.00241569
0.00174505
0.00107843
0.0004185
-0.000232038
-0.000870522
-0.00149432
-0.00210087
-0.00268763
-0.00325217
-0.00379213
-0.00430527
-0.00478943
-0.00524258
-0.00566277
-0.00604821
-0.00639718
-0.00670812
-0.00697957
-0.00721019
-0.00739876
-0.00754418
-0.00764545
-0.00770172
-0.00771222
-0.0076763
-0.00759343
-0.00746315
-0.00728515
-0.00705918
-0.00678511
-0.00646291
-0.00609261
-0.00567436
-0.00520838
-0.00469499
-0.00413458
-0.00352763
-0.00287469
-0.00217637
-0.00143339
-0.000646498
0.000183459
0.00105558
0.0019689
0.0029224
0.00391499
0.00494552
0.0060128
0.00711558
0.00825255
0.00942236
0.0106236
0.0118549
0.0131146
0.0144014
0.0157135
0.0170495
0.0184076
0.0197861
0.0211835
0.0225978
0.0240274
0.0254704
0.0269251
0.0283895
0.0298619
0.0313403
0.0328229
0.0343077
0.0357928
0.0372764
0.0387563
0.0402309
0.041698
0.0431557
0.0446022
0.0460355
0.0474537
0.0488549
0.0502373
0.0515989
0.0529379
0.0542526
0.055541
0.0568016
0.0580326
0.0592322
0.060399
0.0615312
0.0626273
0.063686
0.0647057
0.0656851
0.0666228
0.0675178
0.0683687
0.0691746
0.0699344
0.0706471
0.0713121
0.0719284
0.0724955
0.0730128
0.0734798
0.0738962
0.0742617
0.0745763
0.0748398
0.0750524
0.0752142
0.0753256
0.0753871
0.0753993
0.0753627
0.0752783
0.0751471
0.07497
0.0747484
0.0744836
0.0741771
0.0738306
0.0734457
0.0730243
0.0725685
0.0720804
0.0715622
0.0710163
0.0704452
0.0698514
0.0692375
0.0686063
0.0679606
0.0673034
0.0666373
0.0659653
0.0652904
0.0646153
0.063943
0.0632763
0.0626177
0.0619698
0.0613351
0.0607154
0.0601125
0.0595308
0.0589741
0.0584044
0.0577864
0.0106394
0.00987417
0.00918735
0.0085347
0.00786708
0.00718845
0.00650352
0.0058135
0.00511983
0.00442444
0.0037294
0.00303689
0.00234916
0.00166856
0.000997458
0.000338271
-0.000306607
-0.000934808
-0.001544
-0.0021319
-0.00269628
-0.003235
-0.003746
-0.00422729
-0.00467702
-0.0050934
-0.00547475
-0.00581951
-0.00612623
-0.00639355
-0.00662024
-0.00680516
-0.0069473
-0.00704574
-0.00709967
-0.00710841
-0.00707134
-0.00698798
-0.00685792
-0.00668087
-0.00645662
-0.00618505
-0.00586616
-0.0055
-0.00508672
-0.00462655
-0.00411982
-0.00356692
-0.00296832
-0.00232456
-0.00163627
-0.000904125
-0.000128887
0.000688624
0.00154752
0.00244687
0.00338564
0.0043628
0.0053772
0.00642769
0.00751303
0.00863195
0.00978313
0.0109652
0.0121767
0.0134163
0.0146823
0.0159734
0.0172878
0.0186241
0.0199804
0.0213553
0.0227468
0.0241535
0.0255733
0.0270047
0.0284457
0.0298945
0.0313494
0.0328084
0.0342696
0.0357313
0.0371914
0.0386481
0.0400995
0.0415437
0.0429788
0.0444029
0.0458141
0.0472105
0.0485903
0.0499516
0.0512926
0.0526115
0.0539065
0.0551759
0.0564179
0.0576308
0.058813
0.059963
0.061079
0.0621597
0.0632035
0.0642091
0.065175
0.0661002
0.0669832
0.067823
0.0686185
0.0693686
0.0700726
0.0707295
0.0713386
0.0718993
0.072411
0.0728732
0.0732855
0.0736478
0.0739598
0.0742215
0.074433
0.0745944
0.0747061
0.0747685
0.074782
0.0747474
0.0746655
0.0745371
0.0743632
0.0741451
0.073884
0.0735812
0.0732385
0.0728573
0.0724394
0.0719868
0.0715014
0.0709853
0.0704408
0.0698702
0.0692757
0.0686599
0.0680252
0.0673743
0.0667099
0.0660345
0.0653508
0.0646614
0.0639689
0.0632759
0.0625848
0.0618981
0.0612178
0.0605462
0.0598848
0.0592349
0.0586011
0.0579873
0.0573489
0.0566453
0.0117748
0.010922
0.0101643
0.00945223
0.00873019
0.00800223
0.00727321
0.00654399
0.00581567
0.00508985
0.00436833
0.00365298
0.00294578
0.00224876
0.00156404
0.000893751
0.000240033
-0.000394982
-0.00100919
-0.00160054
-0.002167
-0.00270664
-0.00321757
-0.00369798
-0.00414617
-0.00456051
-0.00493945
-0.00528157
-0.00558551
-0.00585005
-0.00607403
-0.00625643
-0.00639629
-0.00649279
-0.00654519
-0.00655283
-0.00651519
-0.00643181
-0.00630233
-0.0061265
-0.00590413
-0.00563515
-0.00531954
-0.0049574
-0.00454889
-0.00409425
-0.0035938
-0.00304795
-0.00245716
-0.00182198
-0.00114302
-0.000420965
0.000343449
0.00114941
0.00199605
0.00288243
0.00380758
0.00477044
0.00576991
0.00680485
0.00787406