/*--------------------------------*- C++ -*----------------------------------*\
  =========                 |
  \\      /  F ield         | OpenFOAM: The Open Source CFD Toolbox
   \\    /   O peration     | Website:  https://openfoam.org
    \\  /    A nd           | Version:  7
     \\/     M anipulation  |
\*---------------------------------------------------------------------------*/
FoamFile
{
    version     2.0;
    format      ascii;
    class       surfaceScalarField;
    location    "0.425";
    object      phi;
}
// * * * * * * * * * * * * * * * * * * * * * * * * * * * * * * * * * * * * * //

dimensions      [0 3 -1 0 0 0 0];

internalField   nonuniform List<scalar> 
50880
(
5.83004e-12
-6.39525e-12
3.61347e-11
-3.03043e-11
8.10755e-11
-4.49419e-11
1.3074e-10
-4.96652e-11
1.78003e-10
-4.72629e-11
2.17893e-10
-3.98897e-11
2.46983e-10
-2.90891e-11
2.62958e-10
-1.5974e-11
2.64294e-10
-1.33397e-12
2.50026e-10
1.42703e-11
2.19592e-10
3.04339e-11
1.72729e-10
4.68596e-11
1.09402e-10
6.33242e-11
2.97455e-11
7.96568e-11
-6.59773e-11
9.57253e-11
-1.77403e-10
1.11428e-10
-3.04092e-10
1.26688e-10
-4.4554e-10
1.41446e-10
-6.01197e-10
1.55656e-10
-7.70475e-10
1.69278e-10
-9.52759e-10
1.82285e-10
-1.14741e-09
1.94655e-10
-1.35379e-09
2.06374e-10
-1.57122e-09
2.1743e-10
-1.79903e-09
2.27816e-10
-2.03656e-09
2.37529e-10
-2.28313e-09
2.46566e-10
-2.53805e-09
2.54927e-10
-2.80067e-09
2.62615e-10
-3.0703e-09
2.69636e-10
-3.3463e-09
2.75993e-10
-3.62799e-09
2.81694e-10
-3.91473e-09
2.86746e-10
-4.20589e-09
2.91157e-10
-4.50083e-09
2.94936e-10
-4.79892e-09
2.98094e-10
-5.09956e-09
3.0064e-10
-5.40214e-09
3.02585e-10
-5.70608e-09
3.0394e-10
-6.0108e-09
3.04716e-10
-6.31572e-09
3.04925e-10
-6.6203e-09
3.04579e-10
-6.92399e-09
3.03689e-10
-7.22626e-09
3.0227e-10
-7.52659e-09
3.00332e-10
-7.82447e-09
2.97888e-10
-8.11942e-09
2.9495e-10
-8.41096e-09
2.91533e-10
-8.6986e-09
2.87648e-10
-8.98191e-09
2.83309e-10
-9.26044e-09
2.78528e-10
-9.53376e-09
2.73318e-10
-9.80145e-09
2.67692e-10
-1.00631e-08
2.61665e-10
-1.03184e-08
2.55247e-10
-1.05668e-08
2.48454e-10
-1.08081e-08
2.41297e-10
-1.10419e-08
2.3379e-10
-1.12678e-08
2.25947e-10
-1.14856e-08
2.1778e-10
-1.16949e-08
2.09303e-10
-1.18955e-08
2.0053e-10
-1.20869e-08
1.91473e-10
-1.22691e-08
1.82147e-10
-1.24416e-08
1.72564e-10
-1.26044e-08
1.62739e-10
-1.27571e-08
1.52685e-10
-1.28995e-08
1.42415e-10
-1.30314e-08
1.31944e-10
-1.31527e-08
1.21286e-10
-1.32632e-08
1.10454e-10
-1.33626e-08
9.94622e-11
-1.3451e-08
8.83256e-11
-1.3528e-08
7.70581e-11
-1.35937e-08
6.56743e-11
-1.36479e-08
5.41886e-11
-1.36905e-08
4.26159e-11
-1.37215e-08
3.09708e-11
-1.37407e-08
1.92685e-11
-1.37483e-08
7.52395e-12
-1.3744e-08
-4.24749e-12
-1.3728e-08
-1.60304e-11
-1.37002e-08
-2.78094e-11
-1.36606e-08
-3.95686e-11
-1.36093e-08
-5.12925e-11
-1.35463e-08
-6.29649e-11
-1.34718e-08
-7.45699e-11
-1.33857e-08
-8.6091e-11
-1.32882e-08
-9.75121e-11
-1.31793e-08
-1.08817e-10
-1.30594e-08
-1.19988e-10
-1.29283e-08
-1.3101e-10
-1.27865e-08
-1.41865e-10
-1.26339e-08
-1.52537e-10
-1.24709e-08
-1.63008e-10
-1.22977e-08
-1.73262e-10
-1.21144e-08
-1.83282e-10
-1.19213e-08
-1.9305e-10
-1.17188e-08
-2.0255e-10
-1.1507e-08
-2.11764e-10
-1.12864e-08
-2.20675e-10
-1.10571e-08
-2.29266e-10
-1.08196e-08
-2.37521e-10
-1.05741e-08
-2.45422e-10
-1.03212e-08
-2.52952e-10
-1.00611e-08
-2.60095e-10
-9.79426e-09
-2.66834e-10
-9.52111e-09
-2.73154e-10
-9.24207e-09
-2.79037e-10
-8.9576e-09
-2.84468e-10
-8.66817e-09
-2.89431e-10
-8.37426e-09
-2.9391e-10
-8.07637e-09
-2.97892e-10
-7.77501e-09
-3.0136e-10
-7.47071e-09
-3.04301e-10
-7.16401e-09
-3.067e-10
-6.85546e-09
-3.08544e-10
-6.54564e-09
-3.0982e-10
-6.23513e-09
-3.10515e-10
-5.92451e-09
-3.10618e-10
-5.61439e-09
-3.10117e-10
-5.30539e-09
-3.09e-10
-4.99813e-09
-3.07259e-10
-4.69325e-09
-3.04884e-10
-4.39138e-09
-3.01865e-10
-4.09319e-09
-2.98195e-10
-3.79932e-09
-2.93868e-10
-3.51044e-09
-2.88877e-10
-3.22722e-09
-2.83218e-10
-2.95034e-09
-2.76886e-10
-2.68046e-09
-2.6988e-10
-2.41826e-09
-2.62197e-10
-2.16442e-09
-2.53839e-10
-1.91961e-09
-2.44807e-10
-1.68451e-09
-2.35106e-10
-1.45976e-09
-2.24741e-10
-1.24604e-09
-2.13721e-10
-1.04398e-09
-2.02059e-10
-8.54215e-10
-1.89768e-10
-6.77347e-10
-1.76868e-10
-5.13967e-10
-1.63381e-10
-3.64629e-10
-1.49337e-10
-2.29856e-10
-1.34772e-10
-1.10123e-10
-1.19732e-10
-5.84837e-12
-1.04272e-10
8.26143e-11
-8.84605e-11
1.55e-10
-7.23845e-11
2.1115e-10
-5.61513e-11
2.51047e-10
-3.98984e-11
2.74847e-10
-2.38021e-11
2.82937e-10
-8.09176e-12
2.76008e-10
6.92984e-12
2.55159e-10
2.08534e-11
2.22049e-10
3.31175e-11
1.79112e-10
4.29413e-11
1.2987e-10
4.92381e-11
7.93437e-11
5.0518e-11
3.46077e-11
4.47297e-11
5.32071e-12
2.92856e-11
5.32142e-12
2.99999e-11
-3.63951e-11
1.01144e-10
-1.01443e-10
1.95432e-10
-1.39227e-10
2.95786e-10
-1.50018e-10
3.87848e-10
-1.39323e-10
4.6038e-10
-1.1242e-10
5.04921e-10
-7.36297e-11
5.15283e-10
-2.63374e-11
4.87076e-10
2.68731e-11
4.17299e-10
8.40494e-11
3.04031e-10
1.43707e-10
1.46184e-10
2.0471e-10
-5.66778e-11
2.66186e-10
-3.04478e-10
3.27454e-10
-5.96735e-10
3.87982e-10
-9.32653e-10
4.47348e-10
-1.31118e-09
5.05222e-10
-1.73108e-09
5.61341e-10
-2.19092e-09
6.15502e-10
-2.68919e-09
6.67539e-10
-3.22423e-09
7.17326e-10
-3.79433e-09
7.64761e-10
-4.39772e-09
8.09768e-10
-5.03258e-09
8.52293e-10
-5.69706e-09
8.92294e-10
-6.38928e-09
9.29746e-10
-7.10735e-09
9.64632e-10
-7.84937e-09
9.96947e-10
-8.61344e-09
1.02669e-09
-9.39768e-09
1.05388e-09
-1.02002e-08
1.07851e-09
-1.10191e-08
1.10063e-09
-1.18526e-08
1.12024e-09
-1.26988e-08
1.13738e-09
-1.3556e-08
1.15207e-09
-1.44222e-08
1.16436e-09
-1.52959e-08
1.17428e-09
-1.61752e-08
1.18186e-09
-1.70584e-08
1.18716e-09
-1.79439e-08
1.1902e-09
-1.883e-08
1.19104e-09
-1.97151e-08
1.18971e-09
-2.05977e-08
1.18627e-09
-2.14762e-08
1.18075e-09
-2.23491e-08
1.17322e-09
-2.32149e-08
1.16371e-09
-2.40722e-08
1.15227e-09
-2.49196e-08
1.13896e-09
-2.57558e-08
1.12381e-09
-2.65794e-08
1.10689e-09
-2.73891e-08
1.08824e-09
-2.81837e-08
1.06791e-09
-2.89619e-08
1.04596e-09
-2.97227e-08
1.02243e-09
-3.04648e-08
9.97369e-10
-3.11872e-08
9.70837e-10
-3.18888e-08
9.42882e-10
-3.25685e-08
9.13555e-10
-3.32255e-08
8.82909e-10
-3.38587e-08
8.50996e-10
-3.44673e-08
8.17867e-10
-3.50503e-08
7.83576e-10
-3.5607e-08
7.48174e-10
-3.61366e-08
7.11714e-10
-3.66383e-08
6.74251e-10
-3.71114e-08
6.35837e-10
-3.75552e-08
5.96525e-10
-3.79692e-08
5.56371e-10
-3.83527e-08
5.15428e-10
-3.87051e-08
4.73751e-10
-3.90261e-08
4.31395e-10
-3.9315e-08
3.88416e-10
-3.95716e-08
3.4487e-10
-3.97953e-08
3.00812e-10
-3.9986e-08
2.56301e-10
-4.01432e-08
2.11393e-10
-4.02667e-08
1.66146e-10
-4.03563e-08
1.20619e-10
-4.04119e-08
7.48699e-11
-4.04334e-08
2.89585e-11
-4.04206e-08
-1.70553e-11
-4.03735e-08
-6.31111e-11
-4.02921e-08
-1.09148e-10
-4.01766e-08
-1.55104e-10
-4.0027e-08
-2.00918e-10
-3.98434e-08
-2.46527e-10
-3.96261e-08
-2.91867e-10
-3.93753e-08
-3.36876e-10
-3.90914e-08
-3.81489e-10
-3.87745e-08
-4.25643e-10
-3.84253e-08
-4.69271e-10
-3.8044e-08
-5.12309e-10
-3.76311e-08
-5.54691e-10
-3.71873e-08
-5.96352e-10
-3.67131e-08
-6.37225e-10
-3.62091e-08
-6.77244e-10
-3.5676e-08
-7.16342e-10
-3.51146e-08
-7.54453e-10
-3.45257e-08
-7.91511e-10
-3.391e-08
-8.27448e-10
-3.32685e-08
-8.62199e-10
-3.2602e-08
-8.95696e-10
-3.19117e-08
-9.27875e-10
-3.11984e-08
-9.5867e-10
-3.04634e-08
-9.88014e-10
-2.97076e-08
-1.01584e-09
-2.89324e-08
-1.0421e-09
-2.81388e-08
-1.06671e-09
-2.73282e-08
-1.08961e-09
-2.65019e-08
-1.11075e-09
-2.56613e-08
-1.13007e-09
-2.48077e-08
-1.14749e-09
-2.39426e-08
-1.16298e-09
-2.30675e-08
-1.17646e-09
-2.21839e-08
-1.18789e-09
-2.12934e-08
-1.19722e-09
-2.03976e-08
-1.20438e-09
-1.94981e-08
-1.20933e-09
-1.85966e-08
-1.21202e-09
-1.76948e-08
-1.21241e-09
-1.67944e-08
-1.21046e-09
-1.58973e-08
-1.20612e-09
-1.50052e-08
-1.19935e-09
-1.412e-08
-1.19013e-09
-1.32434e-08
-1.17842e-09
-1.23774e-08
-1.1642e-09
-1.15238e-08
-1.14743e-09
-1.06846e-08
-1.1281e-09
-9.86163e-09
-1.1062e-09
-9.05681e-09
-1.08171e-09
-8.27206e-09
-1.05463e-09
-7.50929e-09
-1.02496e-09
-6.77043e-09
-9.927e-10
-6.05736e-09
-9.57872e-10
-5.37197e-09
-9.20497e-10
-4.7161e-09
-8.80605e-10
-4.09159e-09
-8.38239e-10
-3.50019e-09
-7.93453e-10
-2.94364e-09
-7.46315e-10
-2.4236e-09
-6.96912e-10
-1.94163e-09
-6.45348e-10
-1.49921e-09
-5.91752e-10
-1.09771e-09
-5.36281e-10
-7.3831e-10
-4.79129e-10
-4.22051e-10
-4.20532e-10
-1.49731e-10
-3.6078e-10
7.81182e-11
-3.00232e-10
2.61301e-10
-2.39332e-10
4.00041e-10
-1.78636e-10
4.95086e-10
-1.18845e-10
5.47844e-10
-6.08488e-11
5.60558e-10
-5.78911e-12
5.36546e-10
4.48568e-11
4.80503e-10
8.9157e-11
3.98872e-10
1.24579e-10
3.00282e-10
1.47839e-10
1.95996e-10
1.54811e-10
1.00167e-10
1.40562e-10
2.92717e-11
1.00185e-10
3.45932e-11
4.48196e-11
-8.12159e-11
1.3911e-10
-1.95731e-10
2.56378e-10
-2.56492e-10
3.74986e-10
-2.68624e-10
4.76655e-10
-2.4099e-10
5.46506e-10
-1.82269e-10
5.72832e-10
-9.99535e-11
5.46673e-10
-1.79418e-13
4.61396e-10
1.12148e-10
3.12259e-10
2.33185e-10
9.6069e-11
3.59899e-10
-1.89126e-10
4.89909e-10
-5.44279e-10
6.21341e-10
-9.69533e-10
7.52707e-10
-1.46438e-09
8.82826e-10
-2.02779e-09
1.01075e-09
-2.65829e-09
1.13573e-09
-3.3541e-09
1.25715e-09
-4.11313e-09
1.37453e-09
-4.93307e-09
1.48749e-09
-5.81145e-09
1.59571e-09
-6.74564e-09
1.69895e-09
-7.73289e-09
1.79702e-09
-8.77038e-09
1.88978e-09
-9.85521e-09
1.97712e-09
-1.09844e-08
2.05897e-09
-1.21551e-08
2.13527e-09
-1.33641e-08
2.20601e-09
-1.46086e-08
2.27116e-09
-1.58855e-08
2.33074e-09
-1.71917e-08
2.38478e-09
-1.85244e-08
2.43331e-09
-1.98805e-08
2.47636e-09
-2.12572e-08
2.51401e-09
-2.26514e-08
2.54631e-09
-2.40604e-08
2.57332e-09
-2.54812e-08
2.59513e-09
-2.69112e-08
2.61182e-09
-2.83475e-08
2.62346e-09
-2.97874e-08
2.63015e-09
-3.12284e-08
2.63199e-09
-3.26677e-08
2.62906e-09
-3.41029e-08
2.62146e-09
-3.55315e-08
2.6093e-09
-3.69509e-08
2.59268e-09
-3.83589e-08
2.57169e-09
-3.97531e-08
2.54645e-09
-4.11312e-08
2.51706e-09
-4.2491e-08
2.48363e-09
-4.38304e-08
2.44627e-09
-4.51472e-08
2.40508e-09
-4.64395e-08
2.36018e-09
-4.77052e-08
2.31169e-09
-4.89425e-08
2.2597e-09
-5.01494e-08
2.20434e-09
-5.13243e-08
2.14571e-09
-5.24654e-08
2.08393e-09
-5.35709e-08
2.01912e-09
-5.46394e-08
1.95138e-09
-5.56692e-08
1.88084e-09
-5.6659e-08
1.8076e-09
-5.76072e-08
1.73179e-09
-5.85125e-08
1.65352e-09
-5.93737e-08
1.57292e-09
-6.01896e-08
1.49008e-09
-6.09589e-08
1.40515e-09
-6.16806e-08
1.31822e-09
-6.23536e-08
1.22943e-09
-6.29771e-08
1.1389e-09
-6.35501e-08
1.04674e-09
-6.40718e-08
9.53082e-10
-6.45414e-08
8.58046e-10
-6.49583e-08
7.61756e-10
-6.53218e-08
6.64338e-10
-6.56314e-08
5.65918e-10
-6.58867e-08
4.66623e-10
-6.60871e-08
3.66581e-10
-6.62324e-08
2.65923e-10
-6.63223e-08
1.64778e-10
-6.63566e-08
6.32794e-11
-6.63352e-08
-3.84413e-11
-6.62581e-08
-1.4025e-10
-6.61252e-08
-2.42011e-10
-6.59368e-08
-3.43588e-10
-6.56928e-08
-4.44843e-10
-6.53937e-08
-5.45639e-10
-6.50398e-08
-6.45836e-10
-6.46313e-08
-7.45292e-10
-6.4169e-08
-8.43867e-10
-6.36532e-08
-9.41417e-10
-6.30847e-08
-1.0378e-09
-6.24641e-08
-1.13287e-09
-6.17923e-08
-1.22648e-09
-6.10702e-08
-1.3185e-09
-6.02986e-08
-1.40876e-09
-5.94787e-08
-1.49713e-09
-5.86116e-08
-1.58346e-09
-5.76985e-08
-1.6676e-09
-5.67406e-08
-1.7494e-09
-5.57393e-08
-1.82873e-09
-5.46961e-08
-1.90542e-09
-5.36124e-08
-1.97934e-09
-5.249e-08
-2.05035e-09
-5.13303e-08
-2.11829e-09
-5.01353e-08
-2.18303e-09
-4.89067e-08
-2.24441e-09
-4.76465e-08
-2.30231e-09
-4.63567e-08
-2.35658e-09
-4.50392e-08
-2.40709e-09
-4.36962e-08
-2.4537e-09
-4.233e-08
-2.49628e-09
-4.09428e-08
-2.5347e-09
-3.9537e-08
-2.56883e-09
-3.81149e-08
-2.59855e-09
-3.6679e-08
-2.62374e-09
-3.5232e-08
-2.64428e-09
-3.37763e-08
-2.66007e-09
-3.23146e-08
-2.67099e-09
-3.08497e-08
-2.67695e-09
-2.93843e-08
-2.67783e-09
-2.79211e-08
-2.67357e-09
-2.64632e-08
-2.66406e-09
-2.50133e-08
-2.64923e-09
-2.35744e-08
-2.62901e-09
-2.21495e-08
-2.60333e-09
-2.07416e-08
-2.57213e-09
-1.93537e-08
-2.53537e-09
-1.79888e-08
-2.49301e-09
-1.66499e-08
-2.44503e-09
-1.53402e-08
-2.39139e-09
-1.40628e-08
-2.33211e-09
-1.28205e-08
-2.26718e-09
-1.16166e-08
-2.19664e-09
-1.04539e-08
-2.12052e-09
-9.33555e-09
-2.03889e-09
-8.26434e-09
-1.95182e-09
-7.24316e-09
-1.85942e-09
-6.27478e-09
-1.76183e-09
-5.36188e-09
-1.65921e-09
-4.50701e-09
-1.55178e-09
-3.71259e-09
-1.43977e-09
-2.98083e-09
-1.3235e-09
-2.31377e-09
-1.20334e-09
-1.71317e-09
-1.07973e-09
-1.18047e-09
-9.53229e-10
-7.16763e-10
-8.24489e-10
-3.22668e-10
-6.94325e-10
1.73234e-12
-5.63732e-10
2.57032e-10
-4.33935e-10
4.44647e-10
-3.06457e-10
5.67001e-10
-1.83199e-10
6.27758e-10
-6.65426e-11
6.32101e-10
4.05101e-11
5.8708e-10
1.34171e-10
5.01988e-10
2.09668e-10
3.88751e-10
2.6108e-10
2.62273e-10
2.81293e-10
1.40589e-10
2.62245e-10
4.47181e-11
1.96057e-10
7.93079e-11
4.96933e-11
-1.30909e-10
1.50286e-10
-2.96322e-10
2.69171e-10
-3.75376e-10
3.81157e-10
-3.80608e-10
4.65434e-10
-3.25266e-10
5.04934e-10
-2.21767e-10
4.85936e-10
-8.09521e-11
3.97662e-10
8.80959e-11
2.31877e-10
2.77932e-10
-1.74714e-11
4.82531e-10
-3.54614e-10
6.97041e-10
-7.82261e-10
9.17559e-10
-1.30186e-09
1.14095e-09
-1.91384e-09
1.36468e-09
-2.61774e-09
1.58672e-09
-3.41241e-09
1.80542e-09
-4.29612e-09
2.01944e-09
-5.26666e-09
2.22769e-09
-6.32141e-09
2.42929e-09
-7.45747e-09
2.62354e-09
-8.67164e-09
2.80987e-09
-9.96052e-09
2.98782e-09
-1.13205e-08
3.15704e-09
-1.2748e-08
3.31723e-09
-1.4239e-08
3.46819e-09
-1.57898e-08
3.60976e-09
-1.73964e-08
3.74183e-09
-1.90547e-08
3.86434e-09
-2.07608e-08
3.97725e-09
-2.25106e-08
4.08057e-09
-2.43002e-08
4.17431e-09
-2.61254e-08
4.25853e-09
-2.79823e-08
4.33328e-09
-2.9867e-08
4.39866e-09
-3.17754e-08
4.45476e-09
-3.37038e-08
4.50169e-09
-3.56482e-08
4.53959e-09
-3.7605e-08
4.56857e-09
-3.95703e-08
4.58877e-09
-4.15405e-08
4.60036e-09
-4.3512e-08
4.60348e-09
-4.54812e-08
4.5983e-09
-4.74448e-08
4.58498e-09
-4.93991e-08
4.56369e-09
-5.13411e-08
4.5346e-09
-5.32673e-08
4.4979e-09
-5.51746e-08
4.45377e-09
-5.70599e-08
4.40239e-09
-5.89202e-08
4.34394e-09
-6.07526e-08
4.27861e-09
-6.25541e-08
4.2066e-09
-6.4322e-08
4.12809e-09
-6.60536e-08
4.04329e-09
-6.77463e-08
3.95237e-09
-6.93975e-08
3.85554e-09
-7.10048e-08
3.753e-09
-7.25658e-08
3.64494e-09
-7.40782e-08
3.53157e-09
-7.55399e-08
3.41308e-09
-7.69488e-08
3.28967e-09
-7.83027e-08
3.16155e-09
-7.95998e-08
3.02892e-09
-8.08383e-08
2.89198e-09
-8.20163e-08
2.75094e-09
-8.31322e-08
2.60601e-09
-8.41845e-08
2.45739e-09
-8.51716e-08
2.3053e-09
-8.60921e-08
2.14993e-09
-8.69447e-08
1.99152e-09
-8.77282e-08
1.83026e-09
-8.84415e-08
1.66638e-09
-8.90835e-08
1.50009e-09
-8.96534e-08
1.33161e-09
-9.01502e-08
1.16115e-09
-9.05732e-08
9.88948e-10
-9.09218e-08
8.15217e-10
-9.11954e-08
6.40185e-10
-9.13936e-08
4.64079e-10
-9.1516e-08
2.87129e-10
-9.15622e-08
1.09565e-10
-9.15323e-08
-6.83799e-11
-9.14261e-08
-2.4647e-10
-9.12436e-08
-4.24468e-10
-9.09851e-08
-6.02136e-10
-9.06507e-08
-7.79232e-10
-9.02408e-08
-9.55515e-10
-8.97559e-08
-1.13074e-09
-8.91965e-08
-1.30466e-09
-8.85634e-08
-1.47702e-09
-8.78572e-08
-1.64759e-09
-8.70789e-08
-1.8161e-09
-8.62295e-08
-1.9823e-09
-8.531e-08
-2.14595e-09
-8.43217e-08
-2.30678e-09
-8.32659e-08
-2.46455e-09
-8.21441e-08
-2.61899e-09
-8.09577e-08
-2.76986e-09
-7.97084e-08
-2.91688e-09
-7.8398e-08
-3.05982e-09
-7.70283e-08
-3.19841e-09
-7.56013e-08
-3.3324e-09
-7.41191e-08
-3.46153e-09
-7.25839e-08
-3.58556e-09
-7.0998e-08
-3.70422e-09
-6.93637e-08
-3.81728e-09
-6.76836e-08
-3.92448e-09
-6.59604e-08
-4.02558e-09
-6.41966e-08
-4.12035e-09
-6.23952e-08
-4.20853e-09
-6.0559e-08
-4.28991e-09
-5.8691e-08
-4.36424e-09
-5.67944e-08
-4.43132e-09
-5.48723e-08
-4.49091e-09
-5.2928e-08
-4.5428e-09
-5.0965e-08
-4.5868e-09
-4.89866e-08
-4.62269e-09
-4.69964e-08
-4.65029e-09
-4.49979e-08
-4.66942e-09
-4.2995e-08
-4.67989e-09
-4.09913e-08
-4.68155e-09
-3.89906e-08
-4.67424e-09
-3.69968e-08
-4.65781e-09
-3.50139e-08
-4.63213e-09
-3.30459e-08
-4.59708e-09
-3.10966e-08
-4.55256e-09
-2.91703e-08
-4.49848e-09
-2.72709e-08
-4.43474e-09
-2.54026e-08
-4.36131e-09
-2.35695e-08
-4.27814e-09
-2.17757e-08
-4.18521e-09
-2.00253e-08
-4.08252e-09
-1.83223e-08
-3.9701e-09
-1.6671e-08
-3.84801e-09
-1.50752e-08
-3.71633e-09
-1.35389e-08
-3.57519e-09
-1.20659e-08
-3.42474e-09
-1.06602e-08
-3.26519e-09
-9.3252e-09
-3.0968e-09
-8.06454e-09
-2.91988e-09
-6.8815e-09
-2.73481e-09
-5.77921e-09
-2.54206e-09
-4.76051e-09
-2.3422e-09
-3.82796e-09
-2.13588e-09
-2.98376e-09
-1.92394e-09
-2.22966e-09
-1.70733e-09
-1.5669e-09
-1.48724e-09
-9.96129e-10
-1.2651e-09
-5.17229e-10
-1.04263e-09
-1.29224e-10
-8.21941e-10
1.69924e-10
-6.05606e-10
3.83517e-10
-3.96789e-10
5.16365e-10
-1.99385e-10
5.7507e-10
-1.81919e-11
5.6835e-10
1.40887e-10
5.07388e-10
2.70623e-10
4.06182e-10
3.62287e-10
2.81879e-10
4.05603e-10
1.55107e-10
3.89021e-10
5.05724e-11
3.00593e-10
1.29874e-10
4.74954e-11
-1.78404e-10
1.40231e-10
-3.89056e-10
2.42738e-10
-4.77882e-10
3.27631e-10
-4.65501e-10
3.72541e-10
-3.70176e-10
3.59107e-10
-2.08333e-10
2.72415e-10
5.74337e-12
1.00559e-10
2.59955e-10
-1.6573e-10
5.44222e-10
-5.33425e-10
8.50223e-10
-1.00752e-09
1.17113e-09
-1.5913e-09
1.50134e-09
-2.28665e-09
1.8363e-09
-3.09423e-09
2.17226e-09
-4.01366e-09
2.50616e-09
-5.04375e-09
2.83551e-09
-6.18256e-09
3.15825e-09
-7.42757e-09
3.47269e-09
-8.77574e-09
3.77747e-09
-1.02237e-08
4.07146e-09
-1.17675e-08
4.35374e-09
-1.34033e-08
4.62359e-09
-1.51267e-08
4.88042e-09
-1.69332e-08
5.12375e-09
-1.88182e-08
5.35322e-09
-2.0777e-08
5.56856e-09
-2.28048e-08
5.76959e-09
-2.48966e-08
5.95616e-09
-2.70475e-08
6.1282e-09
-2.92526e-08
6.28569e-09
-3.1507e-08
6.42864e-09
-3.38055e-08
6.5571e-09
-3.61434e-08
6.67116e-09
-3.85157e-08
6.77094e-09
-4.09175e-08
6.85656e-09
-4.3344e-08
6.92819e-09
-4.57904e-08
6.98599e-09
-4.8252e-08
7.03017e-09
-5.07242e-08
7.06093e-09
-5.32023e-08
7.07849e-09
-5.56819e-08
7.08307e-09
-5.81585e-08
7.07492e-09
-6.06278e-08
7.05429e-09
-6.30856e-08
7.02144e-09
-6.55276e-08
6.97662e-09
-6.79498e-08
6.9201e-09
-7.03482e-08
6.85216e-09
-7.27189e-08
6.77308e-09
-7.50581e-08
6.68315e-09
-7.73621e-08
6.58263e-09
-7.96273e-08
6.47184e-09
-8.18503e-08
6.35105e-09
-8.40275e-08
6.22056e-09
-8.61559e-08
6.08068e-09
-8.8232e-08
5.9317e-09
-9.02529e-08
5.77392e-09
-9.22156e-08
5.60765e-09
-9.41173e-08
5.4332e-09
-9.59551e-08
5.25086e-09
-9.77263e-08
5.06095e-09
-9.94286e-08
4.86379e-09
-1.01059e-07
4.65968e-09
-1.02616e-07
4.44894e-09
-1.04097e-07
4.23188e-09
-1.055e-07
4.00883e-09
-1.06823e-07
3.78011e-09
-1.08064e-07
3.54603e-09
-1.09221e-07
3.30692e-09
-1.10292e-07
3.06312e-09
-1.11277e-07
2.81494e-09
-1.12173e-07
2.56272e-09
-1.1298e-07
2.3068e-09
-1.13696e-07
2.04751e-09
-1.1432e-07
1.78519e-09
-1.14851e-07
1.52018e-09
-1.15289e-07
1.25282e-09
-1.15632e-07
9.83477e-10
-1.1588e-07
7.12486e-10
-1.16033e-07
4.40203e-10
-1.16091e-07
1.66986e-10
-1.16052e-07
-1.06806e-10
-1.15918e-07
-3.8081e-10
-1.15688e-07
-6.54662e-10
-1.15362e-07
-9.27993e-10
-1.14941e-07
-1.20043e-09
-1.14425e-07
-1.4716e-09
-1.13814e-07
-1.74113e-09
-1.1311e-07
-2.00864e-09
-1.12314e-07
-2.27375e-09
-1.11425e-07
-2.53607e-09
-1.10446e-07
-2.79521e-09
-1.09377e-07
-3.0508e-09
-1.08221e-07
-3.30243e-09
-1.06978e-07
-3.54973e-09
-1.0565e-07
-3.79229e-09
-1.0424e-07
-4.02973e-09
-1.02748e-07
-4.26165e-09
-1.01177e-07
-4.48766e-09
-9.95295e-08
-4.70736e-09
-9.78075e-08
-4.92037e-09
-9.60136e-08
-5.1263e-09
-9.41504e-08
-5.32475e-09
-9.22206e-08
-5.51534e-09
-9.02271e-08
-5.69769e-09
-8.8173e-08
-5.8714e-09
-8.60614e-08
-6.03612e-09
-8.38955e-08
-6.19145e-09
-8.16788e-08
-6.33705e-09
-7.94148e-08
-6.47254e-09
-7.71071e-08
-6.59756e-09
-7.47596e-08
-6.71178e-09
-7.23761e-08
-6.81484e-09
-6.99606e-08
-6.90642e-09
-6.75172e-08
-6.9862e-09
-6.50501e-08
-7.05385e-09
-6.25637e-08
-7.10908e-09
-6.00624e-08
-7.15161e-09
-5.75507e-08
-7.18115e-09
-5.50331e-08
-7.19743e-09
-5.25145e-08
-7.20022e-09
-4.99994e-08
-7.18928e-09
-4.74928e-08
-7.16439e-09
-4.49996e-08
-7.12537e-09
-4.25247e-08
-7.07203e-09
-4.0073e-08
-7.00422e-09
-3.76497e-08
-6.92181e-09
-3.52597e-08
-6.8247e-09
-3.29082e-08
-6.7128e-09
-3.06003e-08
-6.58607e-09
-2.8341e-08
-6.4445e-09
-2.61354e-08
-6.28811e-09
-2.39885e-08
-6.11695e-09
-2.19054e-08
-5.93113e-09
-1.9891e-08
-5.7308e-09
-1.795e-08
-5.51618e-09
-1.60872e-08
-5.28752e-09
-1.43072e-08
-5.04518e-09
-1.26144e-08
-4.78957e-09
-1.10131e-08
-4.52121e-09
-9.5072e-09
-4.2407e-09
-8.10045e-09
-3.94881e-09
-6.79623e-09
-3.64642e-09
-5.59752e-09
-3.33459e-09
-4.50686e-09
-3.0146e-09
-3.52622e-09
-2.68796e-09
-2.65697e-09
-2.3565e-09
-1.89969e-09
-2.02237e-09
-1.25411e-09
-1.68821e-09
-7.18891e-10
-1.35716e-09
-2.91488e-10
-1.03301e-09
3.20855e-11
-7.20363e-10
2.5749e-10
-4.24786e-10
3.92327e-10
-1.53022e-10
4.46425e-10
8.67898e-11
4.32161e-10
2.8488e-10
3.64799e-10
4.29643e-10
2.62877e-10
5.07528e-10
1.48723e-10
5.03181e-10
4.94492e-11
3.99875e-10
1.79318e-10
4.04e-11
-2.18802e-10
1.14229e-10
-4.62883e-10
1.85741e-10
-5.49392e-10
2.26775e-10
-5.06535e-10
2.1429e-10
-3.57692e-10
1.2932e-10
-1.23365e-10
-4.36396e-11
1.78704e-10
-3.17094e-10
5.33414e-10
-7.00907e-10
9.2804e-10
-1.20261e-09
1.35193e-09
-1.82769e-09
1.7962e-09
-2.57984e-09
2.2535e-09
-3.46123e-09
2.71769e-09
-4.4727e-09
3.18373e-09
-5.61396e-09
3.64742e-09
-6.88373e-09
4.10528e-09
-8.27994e-09
4.55445e-09
-9.7998e-09
4.99255e-09
-1.14399e-08
5.41761e-09
-1.31965e-08
5.82802e-09
-1.50652e-08
6.22244e-09
-1.70414e-08
6.59979e-09
-1.91202e-08
6.95921e-09
-2.12964e-08
7.29998e-09
-2.35648e-08
7.62156e-09
-2.59197e-08
7.92353e-09
-2.83557e-08
8.20556e-09
-3.0867e-08
8.46744e-09
-3.34478e-08
8.70903e-09
-3.60924e-08
8.93026e-09
-3.87949e-08
9.13114e-09
-4.15495e-08
9.3117e-09
-4.43504e-08
9.47205e-09
-4.71918e-08
9.61232e-09
-5.00679e-08
9.73268e-09
-5.2973e-08
9.83334e-09
-5.59016e-08
9.91453e-09
-5.88479e-08
9.97651e-09
-6.18065e-08
1.00196e-08
-6.4772e-08
1.0044e-08
-6.7739e-08
1.00501e-08
-7.07022e-08
1.00381e-08
-7.36565e-08
1.00086e-08
-7.65968e-08
9.96174e-09
-7.95182e-08
9.89796e-09
-8.24157e-08
9.81763e-09
-8.52846e-08
9.72112e-09
-8.81204e-08
9.60883e-09
-9.09184e-08
9.48115e-09
-9.36743e-08
9.33849e-09
-9.63837e-08
9.18125e-09
-9.90424e-08
9.00984e-09
-1.01647e-07
8.82467e-09
-1.04192e-07
8.62618e-09
-1.06675e-07
8.41478e-09
-1.09092e-07
8.1909e-09
-1.11439e-07
7.95496e-09
-1.13714e-07
7.70741e-09
-1.15911e-07
7.44868e-09
-1.1803e-07
7.1792e-09
-1.20065e-07
6.89942e-09
-1.22015e-07
6.60978e-09
-1.23877e-07
6.31072e-09
-1.25648e-07
6.00271e-09
-1.27325e-07
5.68619e-09
-1.28907e-07
5.36161e-09
-1.3039e-07
5.02944e-09
-1.31773e-07
4.69013e-09
-1.33055e-07
4.34416e-09
-1.34232e-07
3.99198e-09
-1.35303e-07
3.63408e-09
-1.36267e-07
3.27092e-09
-1.37123e-07
2.90299e-09
-1.37868e-07
2.53076e-09
-1.38503e-07
2.15473e-09
-1.39025e-07
1.77539e-09
-1.39435e-07
1.39322e-09
-1.39731e-07
1.00873e-09
-1.39913e-07
6.22427e-10
-1.39981e-07
2.34807e-10
-1.39934e-07
-1.53616e-10
-1.39773e-07
-5.42325e-10
-1.39497e-07
-9.30802e-10
-1.39106e-07
-1.31852e-09
-1.38602e-07
-1.70496e-09
-1.37984e-07
-2.08959e-09
-1.37253e-07
-2.47187e-09
-1.3641e-07
-2.85126e-09
-1.35457e-07
-3.22723e-09
-1.34394e-07
-3.59922e-09
-1.33222e-07
-3.9667e-09
-1.31944e-07
-4.32911e-09
-1.3056e-07
-4.6859e-09
-1.29074e-07
-5.03652e-09
-1.27486e-07
-5.38041e-09
-1.25798e-07
-5.71701e-09
-1.24014e-07
-6.04578e-09
-1.22136e-07
-6.36615e-09
-1.20165e-07
-6.67757e-09
-1.18106e-07
-6.97949e-09
-1.15961e-07
-7.27135e-09
-1.13733e-07
-7.55261e-09
-1.11426e-07
-7.82271e-09
-1.09043e-07
-8.08112e-09
-1.06587e-07
-8.3273e-09
-1.04062e-07
-8.56072e-09
-1.01473e-07
-8.78085e-09
-9.88226e-08
-8.98717e-09
-9.61159e-08
-9.17918e-09
-9.33571e-08
-9.35637e-09
-9.05506e-08
-9.51826e-09
-8.77011e-08
-9.66437e-09
-8.48133e-08
-9.79423e-09
-8.18921e-08
-9.90739e-09
-7.89425e-08
-1.00034e-08
-7.59697e-08
-1.00819e-08
-7.29789e-08
-1.01424e-08
-6.99755e-08
-1.01845e-08
-6.6965e-08
-1.0208e-08
-6.39528e-08
-1.02124e-08
-6.09447e-08
-1.01974e-08
-5.79463e-08
-1.01628e-08
-5.49635e-08
-1.01082e-08
-5.20021e-08
-1.00335e-08
-4.90679e-08
-9.93834e-09
-4.61671e-08
-9.82267e-09
-4.33054e-08
-9.68634e-09
-4.0489e-08
-9.52922e-09
-3.77238e-08
-9.35129e-09
-3.50158e-08
-9.15253e-09
-3.23709e-08
-8.933e-09
-2.9795e-08
-8.6928e-09
-2.7294e-08
-8.43211e-09
-2.48737e-08
-8.15117e-09
-2.25395e-08
-7.85029e-09
-2.02972e-08
-7.5299e-09
-1.81518e-08
-7.1905e-09
-1.61087e-08
-6.83273e-09
-1.41726e-08
-6.45734e-09
-1.2348e-08
-6.06524e-09
-1.06393e-08
-5.65752e-09
-9.05027e-09
-5.23547e-09
-7.58422e-09
-4.80063e-09
-6.24399e-09
-4.35483e-09
-5.03175e-09
-3.9002e-09
-3.94893e-09
-3.43932e-09
-2.9961e-09
-2.97521e-09
-2.17282e-09
-2.51149e-09
-1.4775e-09
-2.05247e-09
-9.07224e-10
-1.60329e-09
-4.57526e-10
-1.17006e-09
-1.22174e-10
-7.60139e-10
1.07069e-10
-3.82259e-10
2.40707e-10
-4.68401e-11
2.91795e-10
2.33793e-10
2.76279e-10
4.45151e-10
2.13428e-10
5.70373e-10
1.26426e-10
5.90184e-10
4.34161e-11
4.82893e-10
2.22736e-10
2.99486e-11
-2.48751e-10
7.65704e-11
-5.09503e-10
1.05583e-10
-5.78402e-10
8.9259e-11
-4.90209e-10
4.68569e-12
-2.73118e-10
-1.6711e-10
4.84285e-11
-4.41739e-10
4.5333e-10
-8.31885e-10
9.23561e-10
-1.34764e-09
1.4438e-09
-1.99678e-09
2.00108e-09
-2.78506e-09
2.58447e-09
-3.71637e-09
3.18481e-09
-4.79305e-09
3.79437e-09
-6.01602e-09
4.4067e-09
-7.385e-09
5.0164e-09
-8.89865e-09
5.61895e-09
-1.05548e-08
6.21056e-09
-1.23503e-08
6.78809e-09
-1.42816e-08
7.34891e-09
-1.63444e-08
7.89083e-09
-1.8534e-08
8.41205e-09
-2.08453e-08
8.91108e-09
-2.32728e-08
9.3867e-09
-2.58107e-08
9.83793e-09
-2.84532e-08
1.0264e-08
-3.11939e-08
1.06643e-08
-3.40267e-08
1.10383e-08
-3.6945e-08
1.13858e-08
-3.99424e-08
1.17064e-08
-4.30122e-08
1.20001e-08
-4.6148e-08
1.22669e-08
-4.9343e-08
1.25067e-08
-5.25906e-08
1.27197e-08
-5.58843e-08
1.2906e-08
-5.92175e-08
1.30658e-08
-6.25836e-08
1.31994e-08
-6.59761e-08
1.33071e-08
-6.93888e-08
1.33892e-08
-7.28152e-08
1.3446e-08
-7.62491e-08
1.34779e-08
-7.96844e-08
1.34854e-08
-8.31151e-08
1.34688e-08
-8.65351e-08
1.34286e-08
-8.99388e-08
1.33654e-08
-9.33202e-08
1.32794e-08
-9.6674e-08
1.31714e-08
-9.99945e-08
1.30416e-08
-1.03276e-07
1.28908e-08
-1.06515e-07
1.27193e-08
-1.09704e-07
1.25277e-08
-1.12839e-07
1.23166e-08
-1.15916e-07
1.20866e-08
-1.18929e-07
1.1838e-08
-1.21875e-07
1.15717e-08
-1.24748e-07
1.1288e-08
-1.27544e-07
1.09875e-08
-1.3026e-07
1.06709e-08
-1.32892e-07
1.03387e-08
-1.35435e-07
9.99152e-09
-1.37885e-07
9.62991e-09
-1.4024e-07
9.25448e-09
-1.42496e-07
8.86582e-09
-1.4465e-07
8.46453e-09
-1.46699e-07
8.05122e-09
-1.48639e-07
7.62649e-09
-1.50468e-07
7.19096e-09
-1.52184e-07
6.74524e-09
-1.53784e-07
6.28995e-09
-1.55266e-07
5.82572e-09
-1.56627e-07
5.35317e-09
-1.57866e-07
4.87294e-09
-1.5898e-07
4.38567e-09
-1.59969e-07
3.89201e-09
-1.60831e-07
3.39259e-09
-1.61565e-07
2.88808e-09
-1.62168e-07
2.37914e-09
-1.62642e-07
1.86642e-09
-1.62983e-07
1.35061e-09
-1.63193e-07
8.32363e-10
-1.63271e-07
3.12376e-10
-1.63216e-07
-2.08669e-10
-1.63028e-07
-7.30081e-10
-1.62708e-07
-1.25116e-09
-1.62255e-07
-1.77121e-09
-1.6167e-07
-2.28952e-09
-1.60955e-07
-2.80537e-09
-1.60108e-07
-3.31806e-09
-1.59133e-07
-3.82685e-09
-1.58029e-07
-4.33103e-09
-1.56798e-07
-4.82986e-09
-1.55443e-07
-5.32261e-09
-1.53963e-07
-5.80854e-09
-1.52362e-07
-6.28691e-09
-1.50642e-07
-6.75699e-09
-1.48804e-07
-7.21803e-09
-1.46852e-07
-7.66929e-09
-1.44788e-07
-8.11001e-09
-1.42614e-07
-8.53947e-09
-1.40335e-07
-8.95691e-09
-1.37953e-07
-9.3616e-09
-1.35471e-07
-9.7528e-09
-1.32894e-07
-1.01298e-08
-1.30225e-07
-1.04918e-08
-1.27468e-07
-1.08381e-08
-1.24627e-07
-1.11681e-08
-1.21707e-07
-1.14809e-08
-1.18712e-07
-1.1776e-08
-1.15646e-07
-1.20525e-08
-1.12516e-07
-1.23099e-08
-1.09325e-07
-1.25475e-08
-1.06078e-07
-1.27646e-08
-1.02782e-07
-1.29605e-08
-9.94416e-08
-1.31348e-08
-9.60623e-08
-1.32867e-08
-9.26501e-08
-1.34157e-08
-8.92108e-08
-1.35212e-08
-8.57505e-08
-1.36027e-08
-8.22753e-08
-1.36597e-08
-7.87915e-08
-1.36918e-08
-7.53056e-08
-1.36984e-08
-7.18238e-08
-1.36791e-08
-6.83529e-08
-1.36337e-08
-6.48995e-08
-1.35617e-08
-6.14701e-08
-1.34628e-08
-5.80717e-08
-1.33368e-08
-5.4711e-08
-1.31834e-08
-5.13947e-08
-1.30026e-08
-4.81299e-08
-1.27941e-08
-4.49231e-08
-1.2558e-08
-4.17814e-08
-1.22943e-08
-3.87113e-08
-1.2003e-08
-3.57197e-08
-1.16844e-08
-3.28132e-08
-1.13387e-08
-2.99981e-08
-1.09662e-08
-2.7281e-08
-1.05674e-08
-2.46679e-08
-1.0143e-08
-2.21648e-08
-9.69356e-09
-1.97775e-08
-9.22003e-09
-1.75114e-08
-8.72345e-09
-1.53716e-08
-8.20508e-09
-1.33627e-08
-7.66641e-09
-1.1489e-08
-7.10919e-09
-9.75409e-09
-6.5355e-09
-8.16113e-09
-5.94779e-09
-6.71241e-09
-5.34892e-09
-5.40946e-09
-4.74227e-09
-4.25284e-09
-4.13183e-09
-3.24203e-09
-3.5223e-09
-2.3753e-09
-2.91921e-09
-1.64947e-09
-2.32911e-09
-1.05982e-09
-1.75972e-09
-5.99782e-10
-1.22018e-09
-2.60801e-10
-7.21242e-10
-3.20556e-11
-2.75578e-10
9.97844e-11
1.01961e-10
1.50881e-10
3.94054e-10
1.40653e-10
5.80593e-10
9.23572e-11
6.38474e-10
3.39727e-11
5.41279e-10
2.56715e-10
1.72398e-11
-2.65991e-10
3.05766e-11
-5.2284e-10
8.25843e-12
-5.56082e-10
-7.60952e-11
-4.05852e-10
-2.44587e-10
-1.04623e-10
-5.15682e-10
3.19524e-10
-9.0468e-10
8.42325e-10
-1.42409e-09
1.44297e-09
-2.08392e-09
2.10363e-09
-2.89195e-09
2.80911e-09
-3.85393e-09
3.54646e-09
-4.97382e-09
4.3047e-09
-6.25396e-09
5.07451e-09
-7.69527e-09
5.84801e-09
-9.29741e-09
6.61854e-09
-1.10589e-08
7.38048e-09
-1.29775e-08
8.12909e-09
-1.50498e-08
8.86038e-09
-1.72719e-08
9.57099e-09
-1.96392e-08
1.02581e-08
-2.21466e-08
1.09194e-08
-2.47885e-08
1.1553e-08
-2.7559e-08
1.21572e-08
-3.04517e-08
1.27307e-08
-3.34602e-08
1.32725e-08
-3.65777e-08
1.37817e-08
-3.97972e-08
1.42578e-08
-4.31115e-08
1.47001e-08
-4.65136e-08
1.51085e-08
-4.99961e-08
1.54826e-08
-5.35517e-08
1.58225e-08
-5.71731e-08
1.61281e-08
-6.08528e-08
1.63994e-08
-6.45836e-08
1.66367e-08
-6.8358e-08
1.68403e-08
-7.21689e-08
1.70103e-08
-7.60089e-08
1.71472e-08
-7.9871e-08
1.72513e-08
-8.37481e-08
1.7323e-08
-8.76332e-08
1.7363e-08
-9.15193e-08
1.73715e-08
-9.53998e-08
1.73493e-08
-9.92679e-08
1.72967e-08
-1.03117e-07
1.72146e-08
-1.06941e-07
1.71033e-08
-1.10733e-07
1.69636e-08
-1.14488e-07
1.67961e-08
-1.18198e-07
1.66014e-08
-1.21859e-07
1.63802e-08
-1.25465e-07