/*--------------------------------*- C++ -*----------------------------------*\
  =========                 |
  \\      /  F ield         | OpenFOAM: The Open Source CFD Toolbox
   \\    /   O peration     | Website:  https://openfoam.org
    \\  /    A nd           | Version:  7
     \\/     M anipulation  |
\*---------------------------------------------------------------------------*/
FoamFile
{
    version     2.0;
    format      ascii;
    class       volVectorField;
    location    "0.425";
    object      U;
}
// * * * * * * * * * * * * * * * * * * * * * * * * * * * * * * * * * * * * * //

dimensions      [0 1 -1 0 0 0 0];

internalField   nonuniform List<vector> 
25600
(
(1.6785e-07 -2.16347e-07 0)
(2.82093e-06 -1.80101e-06 0)
(9.06763e-06 -2.83616e-06 0)
(1.69248e-05 -3.20836e-06 0)
(2.48865e-05 -3.1244e-06 0)
(3.20056e-05 -2.74654e-06 0)
(3.76295e-05 -2.18183e-06 0)
(4.13084e-05 -1.50132e-06 0)
(4.27431e-05 -7.51464e-07 0)
(4.17405e-05 3.73443e-08 0)
(3.81829e-05 8.447e-07 0)
(3.20075e-05 1.65654e-06 0)
(2.3193e-05 2.46285e-06 0)
(1.17489e-05 3.25633e-06 0)
(-2.29164e-06 4.03152e-06 0)
(-1.88774e-05 4.78443e-06 0)
(-3.79434e-05 5.51216e-06 0)
(-5.94134e-05 6.21257e-06 0)
(-8.32028e-05 6.88406e-06 0)
(-0.00010922 7.52536e-06 0)
(-0.000137368 8.13554e-06 0)
(-0.000167548 8.71401e-06 0)
(-0.000199655 9.26043e-06 0)
(-0.000233584 9.77463e-06 0)
(-0.00026923 1.02565e-05 0)
(-0.000306483 1.07061e-05 0)
(-0.000345237 1.11236e-05 0)
(-0.000385382 1.15091e-05 0)
(-0.000426811 1.1863e-05 0)
(-0.000469417 1.21855e-05 0)
(-0.000513093 1.24771e-05 0)
(-0.000557733 1.27382e-05 0)
(-0.000603233 1.29692e-05 0)
(-0.00064949 1.31706e-05 0)
(-0.000696402 1.33429e-05 0)
(-0.000743868 1.34866e-05 0)
(-0.00079179 1.36022e-05 0)
(-0.000840072 1.36903e-05 0)
(-0.000888616 1.37515e-05 0)
(-0.000937331 1.37863e-05 0)
(-0.000986124 1.37952e-05 0)
(-0.00103491 1.37789e-05 0)
(-0.00108359 1.3738e-05 0)
(-0.00113209 1.3673e-05 0)
(-0.00118031 1.35845e-05 0)
(-0.00122819 1.34731e-05 0)
(-0.00127564 1.33394e-05 0)
(-0.00132257 1.31841e-05 0)
(-0.00136893 1.30076e-05 0)
(-0.00141462 1.28106e-05 0)
(-0.00145958 1.25938e-05 0)
(-0.00150375 1.23576e-05 0)
(-0.00154704 1.21027e-05 0)
(-0.00158941 1.18297e-05 0)
(-0.00163078 1.15392e-05 0)
(-0.00167109 1.12317e-05 0)
(-0.00171028 1.0908e-05 0)
(-0.0017483 1.05685e-05 0)
(-0.00178509 1.02138e-05 0)
(-0.0018206 9.84469e-06 0)
(-0.00185478 9.4616e-06 0)
(-0.00188758 9.06519e-06 0)
(-0.00191895 8.65604e-06 0)
(-0.00194885 8.23478e-06 0)
(-0.00197724 7.80199e-06 0)
(-0.00200407 7.35828e-06 0)
(-0.00202931 6.90428e-06 0)
(-0.00205293 6.44059e-06 0)
(-0.00207489 5.96783e-06 0)
(-0.00209515 5.48662e-06 0)
(-0.0021137 4.99758e-06 0)
(-0.0021305 4.50135e-06 0)
(-0.00214553 3.99855e-06 0)
(-0.00215876 3.48984e-06 0)
(-0.00217018 2.97584e-06 0)
(-0.00217978 2.45722e-06 0)
(-0.00218752 1.93464e-06 0)
(-0.00219341 1.40874e-06 0)
(-0.00219744 8.80211e-07 0)
(-0.00219958 3.49718e-07 0)
(-0.00219984 -1.82052e-07 0)
(-0.00219822 -7.14409e-07 0)
(-0.00219471 -1.24666e-06 0)
(-0.00218932 -1.7781e-06 0)
(-0.00218205 -2.30803e-06 0)
(-0.00217291 -2.83572e-06 0)
(-0.0021619 -3.36045e-06 0)
(-0.00214905 -3.8815e-06 0)
(-0.00213435 -4.39812e-06 0)
(-0.00211784 -4.90958e-06 0)
(-0.00209953 -5.41513e-06 0)
(-0.00207945 -5.91402e-06 0)
(-0.00205761 -6.40548e-06 0)
(-0.00203405 -6.88876e-06 0)
(-0.0020088 -7.36308e-06 0)
(-0.00198189 -7.82768e-06 0)
(-0.00195335 -8.28179e-06 0)
(-0.00192324 -8.72463e-06 0)
(-0.00189158 -9.15541e-06 0)
(-0.00185842 -9.57337e-06 0)
(-0.00182381 -9.97772e-06 0)
(-0.0017878 -1.03677e-05 0)
(-0.00175045 -1.07425e-05 0)
(-0.0017118 -1.11014e-05 0)
(-0.00167191 -1.14435e-05 0)
(-0.00163085 -1.17682e-05 0)
(-0.00158868 -1.20747e-05 0)
(-0.00154547 -1.23622e-05 0)
(-0.00150128 -1.26299e-05 0)
(-0.00145618 -1.28772e-05 0)
(-0.00141025 -1.31033e-05 0)
(-0.00136356 -1.33075e-05 0)
(-0.0013162 -1.34891e-05 0)
(-0.00126824 -1.36474e-05 0)
(-0.00121976 -1.37817e-05 0)
(-0.00117086 -1.38914e-05 0)
(-0.00112162 -1.39758e-05 0)
(-0.00107213 -1.40343e-05 0)
(-0.00102248 -1.40664e-05 0)
(-0.000972763 -1.40713e-05 0)
(-0.000923081 -1.40486e-05 0)
(-0.000873527 -1.39978e-05 0)
(-0.000824201 -1.39183e-05 0)
(-0.000775205 -1.38097e-05 0)
(-0.00072664 -1.36715e-05 0)
(-0.00067861 -1.35033e-05 0)
(-0.000631219 -1.33048e-05 0)
(-0.000584573 -1.30755e-05 0)
(-0.000538779 -1.28153e-05 0)
(-0.000493945 -1.25237e-05 0)
(-0.000450177 -1.22007e-05 0)
(-0.000407585 -1.18461e-05 0)
(-0.000366276 -1.14598e-05 0)
(-0.000326359 -1.10416e-05 0)
(-0.00028794 -1.05918e-05 0)
(-0.000251127 -1.01103e-05 0)
(-0.000216025 -9.59745e-06 0)
(-0.000182739 -9.05348e-06 0)
(-0.000151369 -8.47887e-06 0)
(-0.000122015 -7.87421e-06 0)
(-9.47743e-05 -7.24025e-06 0)
(-6.97369e-05 -6.57799e-06 0)
(-4.69898e-05 -5.88869e-06 0)
(-2.66131e-05 -5.17401e-06 0)
(-8.67898e-06 -4.43604e-06 0)
(6.75028e-06 -3.67743e-06 0)
(1.96244e-05 -2.90155e-06 0)
(2.99086e-05 -2.11278e-06 0)
(3.75875e-05 -1.31688e-06 0)
(4.26703e-05 -5.21559e-07 0)
(4.51983e-05 2.6274e-07 0)
(4.52545e-05 1.02146e-06 0)
(4.29779e-05 1.73368e-06 0)
(3.85832e-05 2.36858e-06 0)
(3.23905e-05 2.87972e-06 0)
(2.48672e-05 3.19695e-06 0)
(1.66794e-05 3.21575e-06 0)
(8.77942e-06 2.77985e-06 0)
(2.64291e-06 1.69674e-06 0)
(1.2194e-07 1.22196e-07 0)
(1.77057e-06 -2.89306e-06 0)
(9.37029e-06 -9.42523e-06 0)
(2.31308e-05 -1.34256e-05 0)
(3.93758e-05 -1.47342e-05 0)
(5.52623e-05 -1.39692e-05 0)
(6.87977e-05 -1.17012e-05 0)
(7.84425e-05 -8.37072e-06 0)
(8.30389e-05 -4.30664e-06 0)
(8.17553e-05 2.50514e-07 0)
(7.40135e-05 5.1258e-06 0)
(5.94301e-05 1.01905e-05 0)
(3.77722e-05 1.5349e-05 0)
(8.92415e-06 2.0529e-05 0)
(-2.71381e-05 2.56753e-05 0)
(-7.03662e-05 3.07451e-05 0)
(-0.000120655 3.57053e-05 0)
(-0.000177855 4.053e-05 0)
(-0.00024178 4.51996e-05 0)
(-0.000312216 4.96983e-05 0)
(-0.000388927 5.40139e-05 0)
(-0.000471656 5.81369e-05 0)
(-0.000560136 6.20601e-05 0)
(-0.000654086 6.57782e-05 0)
(-0.000753219 6.92874e-05 0)
(-0.000857239 7.25852e-05 0)
(-0.000965849 7.56701e-05 0)
(-0.00107875 7.85412e-05 0)
(-0.00119563 8.11986e-05 0)
(-0.00131619 8.36429e-05 0)
(-0.00144013 8.58753e-05 0)
(-0.00156714 8.78973e-05 0)
(-0.00169693 8.97111e-05 0)
(-0.0018292 9.13187e-05 0)
(-0.00196365 9.27229e-05 0)
(-0.00209999 9.39263e-05 0)
(-0.00223793 9.49321e-05 0)
(-0.00237719 9.57433e-05 0)
(-0.00251749 9.63633e-05 0)
(-0.00265856 9.67957e-05 0)
(-0.00280012 9.70438e-05 0)
(-0.00294191 9.71115e-05 0)
(-0.00308368 9.70025e-05 0)
(-0.00322516 9.67206e-05 0)
(-0.0033661 9.62696e-05 0)
(-0.00350627 9.56536e-05 0)
(-0.00364542 9.48764e-05 0)
(-0.00378333 9.39421e-05 0)
(-0.00391976 9.28548e-05 0)
(-0.00405451 9.16185e-05 0)
(-0.00418734 9.02374e-05 0)
(-0.00431805 8.87154e-05 0)
(-0.00444644 8.70569e-05 0)
(-0.00457232 8.52658e-05 0)
(-0.00469549 8.33465e-05 0)
(-0.00481576 8.13029e-05 0)
(-0.00493297 7.91394e-05 0)
(-0.00504692 7.68602e-05 0)
(-0.00515747 7.44694e-05 0)
(-0.00526445 7.19712e-05 0)
(-0.0053677 6.937e-05 0)
(-0.00546708 6.66698e-05 0)
(-0.00556244 6.38751e-05 0)
(-0.00565365 6.09901e-05 0)
(-0.00574058 5.80191e-05 0)
(-0.00582311 5.49664e-05 0)
(-0.00590112 5.18363e-05 0)
(-0.0059745 4.86332e-05 0)
(-0.00604315 4.53615e-05 0)
(-0.00610697 4.20256e-05 0)
(-0.00616587 3.86299e-05 0)
(-0.00621976 3.5179e-05 0)
(-0.00626857 3.16772e-05 0)
(-0.00631222 2.81292e-05 0)
(-0.00635066 2.45395e-05 0)
(-0.00638382 2.09128e-05 0)
(-0.00641166 1.72537e-05 0)
(-0.00643413 1.35668e-05 0)
(-0.00645119 9.85699e-06 0)
(-0.00646282 6.12894e-06 0)
(-0.00646898 2.38751e-06 0)
(-0.00646968 -1.36244e-06 0)
(-0.00646488 -5.11599e-06 0)
(-0.00645461 -8.8682e-06 0)
(-0.00643886 -1.26141e-05 0)
(-0.00641764 -1.63486e-05 0)
(-0.00639098 -2.00666e-05 0)
(-0.0063589 -2.3763e-05 0)
(-0.00632144 -2.74327e-05 0)
(-0.00627865 -3.10703e-05 0)
(-0.00623057 -3.46708e-05 0)
(-0.00617726 -3.82287e-05 0)
(-0.0061188 -4.17389e-05 0)
(-0.00605525 -4.51958e-05 0)
(-0.00598669 -4.85942e-05 0)
(-0.00591323 -5.19287e-05 0)
(-0.00583494 -5.51939e-05 0)
(-0.00575195 -5.83842e-05 0)
(-0.00566436 -6.14944e-05 0)
(-0.0055723 -6.45189e-05 0)
(-0.0054759 -6.74523e-05 0)
(-0.00537528 -7.02892e-05 0)
(-0.00527061 -7.30241e-05 0)
(-0.00516203 -7.56517e-05 0)
(-0.0050497 -7.81665e-05 0)
(-0.00493379 -8.05632e-05 0)
(-0.00481448 -8.28366e-05 0)
(-0.00469195 -8.49813e-05 0)
(-0.00456639 -8.69922e-05 0)
(-0.00443801 -8.88641e-05 0)
(-0.00430701 -9.0592e-05 0)
(-0.0041736 -9.21709e-05 0)
(-0.00403801 -9.35958e-05 0)
(-0.00390046 -9.48621e-05 0)
(-0.00376118 -9.5965e-05 0)
(-0.00362042 -9.68999e-05 0)
(-0.00347843 -9.76625e-05 0)
(-0.00333546 -9.82485e-05 0)
(-0.00319177 -9.86536e-05 0)
(-0.00304762 -9.8874e-05 0)
(-0.00290329 -9.89059e-05 0)
(-0.00275904 -9.87455e-05 0)
(-0.00261518 -9.83897e-05 0)
(-0.00247197 -9.78351e-05 0)
(-0.00232971 -9.70789e-05 0)
(-0.00218869 -9.61182e-05 0)
(-0.00204921 -9.49508e-05 0)
(-0.00191157 -9.35744e-05 0)
(-0.00177607 -9.19872e-05 0)
(-0.00164302 -9.01878e-05 0)
(-0.00151272 -8.8175e-05 0)
(-0.00138548 -8.59482e-05 0)
(-0.0012616 -8.3507e-05 0)
(-0.0011414 -8.08517e-05 0)
(-0.00102517 -7.79832e-05 0)
(-0.000913217 -7.49027e-05 0)
(-0.000805844 -7.16125e-05 0)
(-0.000703343 -6.81154e-05 0)
(-0.000606001 -6.44154e-05 0)
(-0.0005141 -6.05175e-05 0)
(-0.000427909 -5.64279e-05 0)
(-0.000347688 -5.21544e-05 0)
(-0.000273683 -4.77066e-05 0)
(-0.00020612 -4.30966e-05 0)
(-0.000145204 -3.8339e-05 0)
(-9.11172e-05 -3.34522e-05 0)
(-4.40059e-05 -2.84588e-05 0)
(-3.97957e-06 -2.33869e-05 0)
(2.89009e-05 -1.82719e-05 0)
(5.46342e-05 -1.31583e-05 0)
(7.32934e-05 -8.10364e-06 0)
(8.5045e-05 -3.18175e-06 0)
(9.01734e-05 1.51048e-06 0)
(8.91139e-05 5.84409e-06 0)
(8.24949e-05 9.64496e-06 0)
(7.1194e-05 1.2676e-05 0)
(5.64044e-05 1.46164e-05 0)
(3.96846e-05 1.50433e-05 0)
(2.30184e-05 1.34185e-05 0)
(9.18304e-06 9.18544e-06 0)
(1.69483e-06 2.64185e-06 0)
(2.82236e-06 -9.10023e-06 0)
(1.34023e-05 -2.31746e-05 0)
(3.10682e-05 -3.10814e-05 0)
(5.08438e-05 -3.31466e-05 0)
(6.91277e-05 -3.04684e-05 0)
(8.3359e-05 -2.41405e-05 0)
(9.14547e-05 -1.50906e-05 0)
(9.17728e-05 -4.06364e-06 0)
(8.30805e-05 8.36009e-06 0)
(6.4483e-05 2.17328e-05 0)
(3.53583e-05 3.57098e-05 0)
(-4.69494e-06 5.00244e-05 0)
(-5.59007e-05 6.44696e-05 0)
(-0.00011834 7.88832e-05 0)
(-0.000191978 9.31376e-05 0)
(-0.000276686 0.000107132 0)
(-0.000372263 0.000120785 0)
(-0.000478444 0.000134034 0)
(-0.000594917 0.000146829 0)
(-0.000721329 0.000159129 0)
(-0.000857296 0.000170903 0)
(-0.00100241 0.000182126 0)
(-0.00115623 0.000192779 0)
(-0.00131832 0.000202849 0)
(-0.00148823 0.000212324 0)
(-0.00166547 0.000221199 0)
(-0.00184958 0.000229467 0)
(-0.00204007 0.000237129 0)
(-0.00223647 0.000244183 0)
(-0.0024383 0.000250631 0)
(-0.00264507 0.000256477 0)
(-0.0028563 0.000261724 0)
(-0.00307152 0.000266379 0)
(-0.00329026 0.000270448 0)
(-0.00351204 0.000273938 0)
(-0.00373641 0.000276856 0)
(-0.00396291 0.000279212 0)
(-0.00419108 0.000281015 0)
(-0.00442049 0.000282273 0)
(-0.0046507 0.000282997 0)
(-0.00488128 0.000283196 0)
(-0.0051118 0.000282882 0)
(-0.00534187 0.000282065 0)
(-0.00557106 0.000280756 0)
(-0.005799 0.000278966 0)
(-0.00602529 0.000276707 0)
(-0.00624955 0.000273989 0)
(-0.00647143 0.000270825 0)
(-0.00669055 0.000267226 0)
(-0.00690656 0.000263205 0)
(-0.00711914 0.000258772 0)
(-0.00732795 0.000253939 0)
(-0.00753267 0.00024872 0)
(-0.00773298 0.000243126 0)
(-0.0079286 0.000237168 0)
(-0.00811921 0.00023086 0)
(-0.00830455 0.000224213 0)
(-0.00848435 0.000217239 0)
(-0.00865833 0.000209952 0)
(-0.00882626 0.000202363 0)
(-0.00898788 0.000194485 0)
(-0.00914297 0.00018633 0)
(-0.00929131 0.000177911 0)
(-0.00943268 0.00016924 0)
(-0.00956689 0.00016033 0)
(-0.00969375 0.000151194 0)
(-0.00981307 0.000141845 0)
(-0.00992469 0.000132295 0)
(-0.0100285 0.000122557 0)
(-0.0101242 0.000112645 0)
(-0.0102118 0.000102571 0)
(-0.0102911 9.23489e-05 0)
(-0.0103621 8.1992e-05 0)
(-0.0104245 7.15137e-05 0)
(-0.0104784 6.09274e-05 0)
(-0.0105236 5.02469e-05 0)
(-0.0105601 3.94859e-05 0)
(-0.0105878 2.86583e-05 0)
(-0.0106066 1.77781e-05 0)
(-0.0106165 6.85945e-06 0)
(-0.0106176 -4.08336e-06 0)
(-0.0106097 -1.5036e-05 0)
(-0.0105929 -2.59838e-05 0)
(-0.0105672 -3.69123e-05 0)
(-0.0105326 -4.78067e-05 0)
(-0.0104891 -5.86521e-05 0)
(-0.0104369 -6.94334e-05 0)
(-0.0103758 -8.01356e-05 0)
(-0.0103062 -9.07434e-05 0)
(-0.0102279 -0.000101242 0)
(-0.0101411 -0.000111615 0)
(-0.010046 -0.000121847 0)
(-0.00994253 -0.000131923 0)
(-0.00983098 -0.000141827 0)
(-0.00971145 -0.000151544 0)
(-0.00958409 -0.000161057 0)
(-0.00944908 -0.000170351 0)
(-0.00930661 -0.00017941 0)
(-0.00915688 -0.000188219 0)
(-0.00900009 -0.00019676 0)
(-0.00883647 -0.00020502 0)
(-0.00866626 -0.000212981 0)
(-0.0084897 -0.000220628 0)
(-0.00830707 -0.000227946 0)
(-0.00811862 -0.000234919 0)
(-0.00792466 -0.000241532 0)
(-0.00772548 -0.00024777 0)
(-0.00752139 -0.000253617 0)
(-0.00731272 -0.000259059 0)
(-0.0070998 -0.000264081 0)
(-0.00688298 -0.000268669 0)
(-0.00666261 -0.000272809 0)
(-0.00643908 -0.000276487 0)
(-0.00621274 -0.00027969 0)
(-0.00598401 -0.000282404 0)
(-0.00575327 -0.000284618 0)
(-0.00552095 -0.000286318 0)
(-0.00528745 -0.000287494 0)
(-0.00505322 -0.000288133 0)
(-0.00481868 -0.000288226 0)
(-0.00458428 -0.000287762 0)
(-0.00435048 -0.000286731 0)
(-0.00411774 -0.000285126 0)
(-0.00388653 -0.000282938 0)
(-0.00365731 -0.000280159 0)
(-0.00343056 -0.000276783 0)
(-0.00320677 -0.000272806 0)
(-0.00298642 -0.000268221 0)
(-0.00277 -0.000263026 0)
(-0.002558 -0.000257219 0)
(-0.0023509 -0.000250798 0)
(-0.0021492 -0.000243764 0)
(-0.00195339 -0.000236119 0)
(-0.00176395 -0.000227866 0)
(-0.00158135 -0.000219012 0)
(-0.00140606 -0.000209564 0)
(-0.00123856 -0.000199533 0)
(-0.00107929 -0.000188933 0)
(-0.000928681 -0.000177779 0)
(-0.000787161 -0.000166094 0)
(-0.000655127 -0.000153903 0)
(-0.000532949 -0.000141237 0)
(-0.00042097 -0.000128136 0)
(-0.000319493 -0.000114646 0)
(-0.00022878 -0.000100823 0)
(-0.000149034 -8.67398e-05 0)
(-8.03965e-05 -7.24811e-05 0)
(-2.29277e-05 -5.8154e-05 0)
(2.34082e-05 -4.38914e-05 0)
(5.87654e-05 -2.986e-05 0)
(8.3443e-05 -1.62704e-05 0)
(9.79182e-05 -3.38992e-06 0)
(0.000102887 8.43867e-06 0)
(9.93131e-05 1.87743e-05 0)
(8.84917e-05 2.70492e-05 0)
(7.21106e-05 3.25431e-05 0)
(5.22753e-05 3.43733e-05 0)
(3.15328e-05 3.15225e-05 0)
(1.34183e-05 2.30202e-05 0)
(2.77694e-06 8.77378e-06 0)
(3.20581e-06 -1.69436e-05 0)
(1.47517e-05 -3.94297e-05 0)
(3.32156e-05 -5.08678e-05 0)
(5.2733e-05 -5.26281e-05 0)
(6.91974e-05 -4.64477e-05 0)
(7.96968e-05 -3.39995e-05 0)
(8.18181e-05 -1.6743e-05 0)
(7.36109e-05 4.10957e-06 0)
(5.35673e-05 2.75779e-05 0)
(2.05592e-05 5.28792e-05 0)
(-2.62234e-05 7.93916e-05 0)
(-8.73245e-05 0.000106621 0)
(-0.000163068 0.000134176 0)
(-0.000253595 0.000161743 0)
(-0.000358896 0.000189071 0)
(-0.000478839 0.00021596 0)
(-0.000613187 0.000242248 0)
(-0.000761622 0.000267804 0)
(-0.000923755 0.000292524 0)
(-0.00109914 0.000316324 0)
(-0.00128729 0.000339138 0)
(-0.00148767 0.000360912 0)
(-0.00169973 0.000381604 0)
(-0.00192287 0.000401182 0)
(-0.00215651 0.000419623 0)
(-0.00240001 0.000436908 0)
(-0.00265276 0.000453028 0)
(-0.00291411 0.000467974 0)
(-0.00318342 0.000481745 0)
(-0.00346006 0.000494341 0)
(-0.00374336 0.000505767 0)
(-0.0040327 0.000516029 0)
(-0.00432743 0.000525137 0)
(-0.00462692 0.000533101 0)
(-0.00493052 0.000539934 0)
(-0.00523762 0.00054565 0)
(-0.0055476 0.000550266 0)
(-0.00585984 0.000553797 0)
(-0.00617376 0.000556261 0)
(-0.00648874 0.000557677 0)
(-0.00680422 0.000558064 0)
(-0.00711962 0.000557442 0)
(-0.00743438 0.000555832 0)
(-0.00774794 0.000553254 0)
(-0.00805978 0.00054973 0)
(-0.00836936 0.000545282 0)
(-0.00867617 0.000539932 0)
(-0.0089797 0.000533702 0)
(-0.00927947 0.000526616 0)
(-0.009575 0.000518696 0)
(-0.00986582 0.000509965 0)
(-0.0101515 0.000500447 0)
(-0.0104315 0.000490165 0)
(-0.0107056 0.000479143 0)
(-0.0109732 0.000467405 0)
(-0.011234 0.000454974 0)
(-0.0114875 0.000441875 0)
(-0.0117335 0.000428132 0)
(-0.0119715 0.000413769 0)
(-0.0122012 0.00039881 0)
(-0.0124223 0.00038328 0)
(-0.0126345 0.000367204 0)
(-0.0128374 0.000350607 0)
(-0.0130308 0.000333512 0)
(-0.0132144 0.000315946 0)
(-0.0133879 0.000297934 0)
(-0.0135511 0.0002795 0)
(-0.0137038 0.00026067 0)
(-0.0138457 0.00024147 0)
(-0.0139766 0.000221926 0)
(-0.0140964 0.000202064 0)
(-0.0142049 0.000181909 0)
(-0.0143019 0.000161488 0)
(-0.0143872 0.000140829 0)
(-0.0144608 0.000119957 0)
(-0.0145226 9.88997e-05 0)
(-0.0145724 7.76844e-05 0)
(-0.0146101 5.63385e-05 0)
(-0.0146358 3.48898e-05 0)
(-0.0146493 1.33661e-05 0)
(-0.0146506 -8.20414e-06 0)
(-0.0146397 -2.97926e-05 0)
(-0.0146166 -5.13707e-05 0)
(-0.0145813 -7.29093e-05 0)
(-0.0145339 -9.43793e-05 0)
(-0.0144743 -0.000115751 0)
(-0.0144027 -0.000136996 0)
(-0.0143192 -0.000158083 0)
(-0.0142237 -0.000178982 0)
(-0.0141165 -0.000199664 0)
(-0.0139977 -0.000220098 0)
(-0.0138675 -0.000240253 0)
(-0.0137259 -0.000260099 0)
(-0.0135733 -0.000279604 0)
(-0.0134097 -0.000298738 0)
(-0.0132354 -0.00031747 0)
(-0.0130507 -0.000335769 0)
(-0.0128558 -0.000353604 0)
(-0.0126509 -0.000370942 0)
(-0.0124364 -0.000387755 0)
(-0.0122126 -0.00040401 0)
(-0.0119798 -0.000419676 0)
(-0.0117383 -0.000434724 0)
(-0.0114885 -0.000449122 0)
(-0.0112308 -0.00046284 0)
(-0.0109656 -0.000475848 0)
(-0.0106932 -0.000488116 0)
(-0.0104141 -0.000499616 0)
(-0.0101288 -0.000510317 0)
(-0.00983766 -0.000520192 0)
(-0.0095412 -0.000529213 0)
(-0.00923991 -0.000537352 0)
(-0.00893428 -0.000544583 0)
(-0.00862484 -0.00055088 0)
(-0.00831212 -0.000556217 0)
(-0.00799667 -0.000560569 0)
(-0.00767903 -0.000563915 0)
(-0.0073598 -0.00056623 0)
(-0.00703954 -0.000567493 0)
(-0.00671886 -0.000567685 0)
(-0.00639835 -0.000566785 0)
(-0.00607864 -0.000564776 0)
(-0.00576035 -0.000561641 0)
(-0.00544411 -0.000557365 0)
(-0.00513057 -0.000551936 0)
(-0.00482036 -0.00054534 0)
(-0.00451414 -0.000537569 0)
(-0.00421256 -0.000528615 0)
(-0.00391629 -0.000518471 0)
(-0.00362597 -0.000507136 0)
(-0.00334227 -0.000494609 0)
(-0.00306584 -0.000480891 0)
(-0.00279734 -0.000465989 0)
(-0.0025374 -0.000449913 0)
(-0.00228668 -0.000432675 0)
(-0.00204579 -0.000414295 0)
(-0.00181535 -0.000394794 0)
(-0.00159594 -0.000374204 0)
(-0.00138816 -0.00035256 0)
(-0.00119253 -0.000329908 0)
(-0.00100959 -0.000306301 0)
(-0.000839803 -0.000281807 0)
(-0.000683609 -0.000256505 0)
(-0.000541391 -0.000230492 0)
(-0.000413467 -0.000203885 0)
(-0.000300082 -0.000176826 0)
(-0.000201389 -0.000149488 0)
(-0.000117437 -0.000122082 0)
(-4.81442e-05 -9.48667e-05 0)
(6.7227e-06 -6.81629e-05 0)
(4.75821e-05 -4.2367e-05 0)
(7.50726e-05 -1.79723e-05 0)
(9.0095e-05 4.4052e-06 0)
(9.38613e-05 2.39977e-05 0)
(8.79523e-05 3.98514e-05 0)
(7.43747e-05 5.07997e-05 0)
(5.55718e-05 5.54592e-05 0)
(3.44476e-05 5.22772e-05 0)
(1.50651e-05 3.97022e-05 0)
(3.21516e-06 1.66725e-05 0)
(3.13455e-06 -2.49237e-05 0)
(1.40475e-05 -5.53818e-05 0)
(3.06805e-05 -6.92303e-05 0)
(4.6793e-05 -6.91288e-05 0)
(5.79994e-05 -5.759e-05 0)
(6.11669e-05 -3.69148e-05 0)
(5.36863e-05 -9.11078e-06 0)
(3.34217e-05 2.41289e-05 0)
(-1.30912e-06 6.14041e-05 0)
(-5.17917e-05 0.00010157 0)
(-0.000118971 0.000143697 0)
(-0.000203499 0.000187029 0)
(-0.00030578 0.000230956 0)
(-0.000426009 0.000274982 0)
(-0.000564201 0.000318706 0)
(-0.000720226 0.000361799 0)
(-0.000893826 0.000403996 0)
(-0.00108464 0.000445079 0)
(-0.00129222 0.000484873 0)
(-0.00151605 0.000523233 0)
(-0.00175555 0.000560046 0)
(-0.00201009 0.000595217 0)
(-0.002279 0.000628674 0)
(-0.00256157 0.000660358 0)
(-0.00285708 0.000690226 0)
(-0.00316478 0.000718244 0)
(-0.00348389 0.000744389 0)
(-0.00381366 0.000768647 0)
(-0.00415327 0.000791009 0)
(-0.00450196 0.000811475 0)
(-0.00485891 0.000830047 0)
(-0.00522334 0.000846735 0)
(-0.00559445 0.000861549 0)
(-0.00597146 0.000874507 0)
(-0.00635358 0.000885627 0)
(-0.00674003 0.000894931 0)
(-0.00713005 0.000902441 0)
(-0.00752288 0.000908184 0)
(-0.00791777 0.000912187 0)
(-0.00831397 0.000914479 0)
(-0.00871076 0.000915092 0)
(-0.00910744 0.000914055 0)
(-0.00950328 0.000911403 0)
(-0.00989761 0.000907168 0)
(-0.0102898 0.000901385 0)
(-0.0106791 0.000894089 0)
(-0.0110649 0.000885316 0)
(-0.0114465 0.000875102 0)
(-0.0118235 0.000863485 0)
(-0.0121951 0.0008505 0)
(-0.0125608 0.000836187 0)
(-0.01292 0.000820582 0)
(-0.0132721 0.000803725 0)
(-0.0136167 0.000785653 0)
(-0.0139532 0.000766406 0)
(-0.0142811 0.000746022 0)
(-0.0145999 0.000724542 0)
(-0.0149091 0.000702004 0)
(-0.0152084 0.000678449 0)
(-0.0154972 0.000653916 0)
(-0.0157752 0.000628446 0)
(-0.0160419 0.000602078 0)
(-0.016297 0.000574855 0)
(-0.0165402 0.000546815 0)
(-0.0167709 0.000518002 0)
(-0.0169891 0.000488455 0)
(-0.0171942 0.000458218 0)
(-0.0173861 0.00042733 0)
(-0.0175644 0.000395836 0)
(-0.017729 0.000363776 0)
(-0.0178795 0.000331195 0)
(-0.0180158 0.000298135 0)
(-0.0181377 0.000264639 0)
(-0.0182449 0.000230751 0)
(-0.0183374 0.000196516 0)
(-0.0184149 0.000161978 0)
(-0.0184774 0.000127181 0)
(-0.0185248 9.21718e-05 0)
(-0.0185569 5.69946e-05 0)
(-0.0185738 2.16961e-05 0)
(-0.0185753 -1.36776e-05 0)
(-0.0185615 -4.90796e-05 0)
(-0.0185323 -8.44628e-05 0)
(-0.0184878 -0.00011978 0)
(-0.018428 -0.000154982 0)
(-0.018353 -0.000190022 0)
(-0.0182629 -0.000224851 0)
(-0.0181577 -0.000259419 0)
(-0.0180376 -0.000293678 0)
(-0.0179027 -0.000327578 0)
(-0.0177533 -0.00036107 0)
(-0.0175894 -0.000394102 0)
(-0.0174114 -0.000426625 0)
(-0.0172193 -0.000458588 0)
(-0.0170136 -0.00048994 0)
(-0.0167945 -0.000520631 0)
(-0.0165622 -0.00055061 0)
(-0.0163171 -0.000579826 0)
(-0.0160595 -0.000608228 0)
(-0.0157899 -0.000635766 0)
(-0.0155085 -0.000662389 0)
(-0.0152158 -0.000688046 0)
(-0.0149123 -0.000712687 0)
(-0.0145983 -0.000736263 0)
(-0.0142744 -0.000758724 0)
(-0.013941 -0.000780021 0)
(-0.0135986 -0.000800106 0)
(-0.0132479 -0.000818932 0)
(-0.0128893 -0.00083645 0)
(-0.0125234 -0.000852616 0)
(-0.0121509 -0.000867383 0)
(-0.0117722 -0.000880707 0)
(-0.0113881 -0.000892545 0)
(-0.0109992 -0.000902856 0)
(-0.0106062 -0.000911597 0)
(-0.0102098 -0.000918731 0)
(-0.0098106 -0.000924218 0)
(-0.00940937 -0.000928023 0)
(-0.00900684 -0.000930112 0)
(-0.00860376 -0.000930451 0)
(-0.00820087 -0.00092901 0)
(-0.00779895 -0.000925762 0)
(-0.00739877 -0.000920679 0)
(-0.00700111 -0.000913739 0)
(-0.00660678 -0.000904922 0)
(-0.00621658 -0.000894208 0)
(-0.00583132 -0.000881585 0)
(-0.0054518 -0.00086704 0)
(-0.00507884 -0.000850567 0)
(-0.00471326 -0.000832163 0)
(-0.00435587 -0.000811829 0)
(-0.00400748 -0.000789572 0)
(-0.00366888 -0.000765404 0)
(-0.00334088 -0.000739342 0)
(-0.00302425 -0.000711413 0)
(-0.00271976 -0.00068165 0)
(-0.00242816 -0.000650094 0)
(-0.00215017 -0.000616798 0)
(-0.00188648 -0.000581826 0)
(-0.00163775 -0.000545256 0)
(-0.0014046 -0.000507183 0)
(-0.00118759 -0.000467719 0)
(-0.000987248 -0.000427001 0)
(-0.000804008 -0.000385191 0)
(-0.000638238 -0.000342485 0)
(-0.000490208 -0.000299117 0)
(-0.00036008 -0.000255371 0)
(-0.000247883 -0.000211589 0)
(-0.000153495 -0.000168186 0)
(-7.6614e-05 -0.000125666 0)
(-1.67264e-05 -8.46448e-05 0)
(2.69299e-05 -4.58739e-05 0)
(5.54044e-05 -1.02729e-05 0)
(7.0079e-05 2.10377e-05 0)
(7.27198e-05 4.67002e-05 0)
(6.55304e-05 6.50892e-05 0)
(5.11621e-05 7.43026e-05 0)
(3.27553e-05 7.21962e-05 0)
(1.46885e-05 5.6488e-05 0)
(3.20399e-06 2.4876e-05 0)
(2.77325e-06 -3.20997e-05 0)
(1.18636e-05 -6.90681e-05 0)
(2.45562e-05 -8.36523e-05 0)
(3.4692e-05 -7.97898e-05 0)
(3.78228e-05 -6.08224e-05 0)
(3.07021e-05 -2.97068e-05 0)
(1.06225e-05 1.09929e-05 0)
(-2.46468e-05 5.90995e-05 0)
(-7.68836e-05 0.000112787 0)
(-0.000147467 0.000170539 0)
(-0.000237428 0.0002311 0)
(-0.000347491 0.000293434 0)
(-0.000478116 0.000356692 0)
(-0.000629535 0.000420171 0)
(-0.000801784 0.000483297 0)
(-0.000994733 0.000545594 0)
(-0.00120811 0.000606673 0)
(-0.00144152 0.000666212 0)
(-0.00169446 0.000723948 0)
(-0.00196636 0.000779665 0)
(-0.00225656 0.000833186 0)
(-0.00256434 0.000884367 0)
(-0.00288894 0.000933095 0)
(-0.00322955 0.000979277 0)
(-0.00358533 0.00102284 0)
(-0.00395542 0.00106374 0)
(-0.00433892 0.00110192 0)
(-0.00473493 0.00113737 0)
(-0.00514253 0.00117006 0)
(-0.00556079 0.00119999 0)
(-0.00598879 0.00122716 0)
(-0.00642559 0.00125158 0)
(-0.00687026 0.00127327 0)
(-0.00732187 0.00129224 0)
(-0.0077795 0.00130852 0)
(-0.00824223 0.00132214 0)
(-0.00870915 0.00133313 0)
(-0.00917936 0.00134152 0)
(-0.00965198 0.00134736 0)
(-0.0101261 0.00135069 0)
(-0.0106009 0.00135154 0)
(-0.0110756 0.00134997 0)
(-0.0115492 0.00134602 0)
(-0.0120209 0.00133975 0)
(-0.0124901 0.00133119 0)
(-0.0129558 0.0013204 0)
(-0.0134173 0.00130743 0)
(-0.0138738 0.00129234 0)
(-0.0143247 0.00127517 0)
(-0.0147692 0.00125599 0)
(-0.0152066 0.00123485 0)
(-0.0156362 0.0012118 0)
(-0.0160574 0.0011869 0)
(-0.0164695 0.00116021 0)
(-0.0168719 0.00113179 0)
(-0.0172641 0.00110168 0)
(-0.0176454 0.00106995 0)
(-0.0180152 0.00103666 0)
(-0.0183731 0.00100187 0)
(-0.0187185 0.00096563 0)
(-0.019051 0.000928006 0)
(-0.0193699 0.000889056 0)
(-0.019675 0.000848841 0)
(-0.0199657 0.000807421 0)
(-0.0202417 0.000764857 0)
(-0.0205025 0.000721209 0)
(-0.0207477 0.00067654 0)
(-0.0209771 0.000630912 0)
(-0.0211904 0.000584387 0)
(-0.0213871 0.000537027 0)
(-0.021567 0.000488897 0)
(-0.0217299 0.00044006 0)
(-0.0218755 0.00039058 0)
(-0.0220037 0.000340523 0)
(-0.0221141 0.000289953 0)
(-0.0222067 0.000238936 0)
(-0.0222813 0.00018754 0)
(-0.0223378 0.00013583 0)
(-0.0223761 8.38745e-05 0)
(-0.0223961 3.17416e-05 0)
(-0.0223978 -2.05003e-05 0)
(-0.0223812 -7.27819e-05 0)
(-0.0223462 -0.000125034 0)
(-0.0222928 -0.000177185 0)
(-0.0222212 -0.000229165 0)
(-0.0221314 -0.000280902 0)
(-0.0220234 -0.000332325 0)
(-0.0218975 -0.000383362 0)
(-0.0217538 -0.000433938 0)
(-0.0215924 -0.000483982 0)
(-0.0214136 -0.000533419 0)
(-0.0212175 -0.000582176 0)
(-0.0210045 -0.000630179 0)
(-0.0207748 -0.000677352 0)
(-0.0205287 -0.000723621 0)
(-0.0202666 -0.000768912 0)
(-0.0199888 -0.000813149 0)
(-0.0196957 -0.000856258 0)
(-0.0193877 -0.000898163 0)
(-0.0190652 -0.000938791 0)
(-0.0187288 -0.000978066 0)
(-0.0183788 -0.00101591 0)
(-0.0180159 -0.00105226 0)
(-0.0176405 -0.00108704 0)
(-0.0172532 -0.00112017 0)
(-0.0168546 -0.00115158 0)
(-0.0164453 -0.0011812 0)
(-0.016026 -0.00120897 0)
(-0.0155973 -0.00123481 0)
(-0.0151598 -0.00125865 0)
(-0.0147144 -0.00128043 0)
(-0.0142618 -0.00130009 0)
(-0.0138026 -0.00131756 0)
(-0.0133377 -0.00133278 0)
(-0.0128678 -0.00134569 0)
(-0.0123938 -0.00135623 0)
(-0.0119165 -0.00136435 0)
(-0.0114368 -0.00137 0)
(-0.0109554 -0.00137312 0)
(-0.0104734 -0.00137367 0)
(-0.00999153 -0.00137161 0)
(-0.00951078 -0.0013669 0)
(-0.00903205 -0.00135949 0)
(-0.00855627 -0.00134936 0)
(-0.00808439 -0.00133648 0)
(-0.00761736 -0.00132082 0)
(-0.00715612 -0.00130237 0)
(-0.00670163 -0.0012811 0)
(-0.00625486 -0.00125702 0)
(-0.00581677 -0.00123012 0)
(-0.0053883 -0.00120041 0)
(-0.0049704 -0.00116789 0)
(-0.00456402 -0.0011326 0)
(-0.00417009 -0.00109455 0)
(-0.00378951 -0.0010538 0)
(-0.00342317 -0.0010104 0)
(-0.00307195 -0.0009644 0)
(-0.00273667 -0.0009159 0)
(-0.00241814 -0.000864994 0)
(-0.00211711 -0.000811801 0)
(-0.00183429 -0.000756468 0)
(-0.00157033 -0.000699165 0)
(-0.0013258 -0.000640098 0)
(-0.0011012 -0.00057951 0)
(-0.000896928 -0.000517693 0)
(-0.000713283 -0.000454991 0)
(-0.000550428 -0.000391819 0)
(-0.000408378 -0.00032867 0)
(-0.000286979 -0.000266137 0)
(-0.000185878 -0.000204932 0)
(-0.000104492 -0.000145908 0)
(-4.19744e-05 -9.00963e-05 0)
(2.82167e-06 -3.87344e-05 0)
(3.13841e-05 6.69397e-06 0)
(4.55874e-05 4.44207e-05 0)
(4.77431e-05 7.23573e-05 0)
(4.06172e-05 8.80705e-05 0)
(2.74851e-05 8.87896e-05 0)
(1.2832e-05 7.14336e-05 0)
(2.90061e-06 3.245e-05 0)
(2.22939e-06 -3.78309e-05 0)
(8.63879e-06 -7.89778e-05 0)
(1.57616e-05 -9.20891e-05 0)
(1.78694e-05 -8.22412e-05 0)
(1.06404e-05 -5.35814e-05 0)
(-9.18827e-06 -9.71563e-06 0)
(-4.4341e-05 4.62425e-05 0)
(-9.70704e-05 0.000111638 0)
(-0.000169188 0.000184225 0)
(-0.000262112 0.000262112 0)
(-0.000376914 0.000343714 0)
(-0.000514358 0.000427708 0)
(-0.000674933 0.000512989 0)
(-0.000858893 0.000598637 0)
(-0.00106628 0.000683887 0)
(-0.00129696 0.000768103 0)
(-0.00155065 0.000850755 0)
(-0.00182692 0.000931403 0)
(-0.00212522 0.00100968 0)
(-0.00244493 0.00108529 0)
(-0.00278532 0.00115799 0)
(-0.0031456 0.00122756 0)
(-0.00352493 0.00129384 0)
(-0.00392239 0.00135671 0)
(-0.00433707 0.00141604 0)
(-0.00476797 0.00147178 0)
(-0.0052141 0.00152384 0)
(-0.00567445 0.0015722 0)
(-0.00614796 0.00161681 0)
(-0.00663361 0.00165768 0)
(-0.00713032 0.00169478 0)
(-0.00763705 0.00172814 0)
(-0.00815272 0.00175777 0)
(-0.00867629 0.00178368 0)
(-0.0092067 0.00180592 0)
(-0.0097429 0.00182451 0)
(-0.0102838 0.0018395 0)
(-0.0108285 0.00185094 0)
(-0.0113759 0.00185888 0)
(-0.011925 0.00186336 0)
(-0.0124748 0.00186445 0)
(-0.0130243 0.00186221 0)
(-0.0135726 0.00185671 0)
(-0.0141187 0.00184799 0)
(-0.0146617 0.00183614 0)
(-0.0152008 0.00182123 0)
(-0.0157349 0.00180331 0)
(-0.0162633 0.00178247 0)
(-0.0167851 0.00175878 0)
(-0.0172995 0.00173231 0)
(-0.0178057 0.00170313 0)
(-0.0183028 0.00167133 0)
(-0.0187902 0.00163698 0)
(-0.0192671 0.00160015 0)
(-0.0197328 0.00156093 0)
(-0.0201865 0.0015194 0)
(-0.0206277 0.00147562 0)
(-0.0210556 0.0014297 0)
(-0.0214697 0.0013817 0)
(-0.0218693 0.0013317 0)
(-0.0222539 0.0012798 0)
(-0.022623 0.00122606 0)
(-0.0229759 0.00117058 0)
(-0.0233122 0.00111344 0)
(-0.0236314 0.00105471 0)
(-0.0239331 0.000994498 0)
(-0.0242168 0.000932872 0)
(-0.0244821 0.000869923 0)
(-0.0247287 0.000805737 0)
(-0.0249562 0.000740401 0)
(-0.0251643 0.000674003 0)
(-0.0253527 0.00060663 0)
(-0.025521 0.000538372 0)
(-0.0256692 0.000469318 0)
(-0.0257968 0.000399559 0)
(-0.0259038 0.000329186 0)
(-0.02599 0.00025829 0)
(-0.0260552 0.000186964 0)
(-0.0260994 0.000115302 0)
(-0.0261224 4.3397e-05 0)
(-0.0261242 -2.86556e-05 0)
(-0.0261048 -0.00010076 0)
(-0.0260642 -0.000172821 0)
(-0.0260023 -0.00024474 0)
(-0.0259193 -0.00031642 0)
(-0.0258152 -0.000387762 0)