/*--------------------------------*- C++ -*----------------------------------*\
  =========                 |
  \\      /  F ield         | OpenFOAM: The Open Source CFD Toolbox
   \\    /   O peration     | Website:  https://openfoam.org
    \\  /    A nd           | Version:  7
     \\/     M anipulation  |
\*---------------------------------------------------------------------------*/
FoamFile
{
    version     2.0;
    format      ascii;
    class       volScalarField;
    location    "0.375";
    object      p;
}
// * * * * * * * * * * * * * * * * * * * * * * * * * * * * * * * * * * * * * //

dimensions      [0 2 -2 0 0 0 0];

internalField   nonuniform List<scalar> 
25600
(
2.354e-06
0.000115759
0.000144787
3.6678e-05
-0.000216593
-0.000611054
-0.00113564
-0.00177572
-0.00251578
-0.00334067
-0.00423596
-0.00518805
-0.00618429
-0.00721299
-0.00826346
-0.0093259
-0.0103913
-0.0114513
-0.0124985
-0.0135258
-0.014527
-0.0154961
-0.0164281
-0.017318
-0.0181616
-0.0189547
-0.019694
-0.0203761
-0.0209981
-0.0215576
-0.0220521
-0.0224798
-0.0228388
-0.0231277
-0.0233452
-0.0234902
-0.0235619
-0.0235597
-0.023483
-0.0233316
-0.0231053
-0.0228043
-0.0224286
-0.0219785
-0.0214547
-0.0208576
-0.0201879
-0.0194465
-0.0186343
-0.0177524
-0.0168019
-0.0157841
-0.0147003
-0.0135519
-0.0123405
-0.0110677
-0.00973509
-0.00834449
-0.00689772
-0.00539667
-0.0038433
-0.00223964
-0.00058777
0.00111016
0.00285194
0.00463533
0.00645801
0.00831763
0.0102118
0.012138
0.0140939
0.0160769
0.0180843
0.0201137
0.0221624
0.0242277
0.026307
0.0283975
0.0304965
0.0326012
0.034709
0.0368169
0.0389223
0.0410222
0.043114
0.0451947
0.0472616
0.0493118
0.0513427
0.0533513
0.055335
0.0572909
0.0592163
0.0611086
0.0629651
0.0647831
0.06656
0.0682933
0.0699805
0.0716191
0.0732067
0.074741
0.0762197
0.0776407
0.0790018
0.080301
0.0815363
0.0827059
0.0838081
0.0848412
0.0858036
0.086694
0.0875111
0.0882536
0.0889206
0.0895112
0.0900246
0.0904602
0.0908176
0.0910966
0.091297
0.0914191
0.091463
0.0914292
0.0913185
0.0911318
0.0908702
0.090535
0.0901279
0.0896509
0.0891059
0.0884954
0.0878221
0.0870891
0.0862996
0.0854574
0.0845664
0.0836311
0.0826562
0.0816471
0.0806094
0.0795492
0.0784733
0.0773888
0.0763037
0.0752263
0.0741659
0.0731324
0.0721364
0.0711894
0.0703038
0.0694928
0.0687703
0.0681507
0.0676486
0.067277
0.0670452
0.0669549
0.066995
0.0671101
-0.000107508
4.473e-06
8.61582e-06
-0.00011232
-0.000354317
-0.000715769
-0.00119018
-0.00176705
-0.00243433
-0.00317964
-0.00399079
-0.00485603
-0.00576414
-0.00670453
-0.00766734
-0.00864344
-0.00962436
-0.0106023
-0.01157
-0.0125208
-0.0134486
-0.0143478
-0.0152133
-0.0160403
-0.0168246
-0.0175622
-0.0182496
-0.0188837
-0.0194615
-0.0199804
-0.0204383
-0.020833
-0.0211627
-0.021426
-0.0216215
-0.0217481
-0.0218049
-0.0217913
-0.0217066
-0.0215506
-0.021323
-0.0210239
-0.0206532
-0.0202114
-0.0196987
-0.0191158
-0.0184631
-0.0177416
-0.016952
-0.0160954
-0.0151728
-0.0141853
-0.0131343
-0.0120212
-0.0108472
-0.0096141
-0.00832334
-0.00697663
-0.00557574
-0.00412247
-0.0026187
-0.00106639
0.000532459
0.00217578
0.00386144
0.00558729
0.00735108
0.00915054
0.0109834
0.0128472
0.0147396
0.0166581
0.0186004
0.0205637
0.0225457
0.0245438
0.0265553
0.0285776
0.030608
0.032644
0.0346828
0.0367218
0.0387582
0.0407893
0.0428125
0.0448249
0.0468239
0.0488068
0.0507709
0.0527134
0.0546318
0.0565233
0.0583853
0.0602153
0.0620106
0.0637687
0.0654872
0.0671635
0.0687953
0.0703801
0.0719158
0.0734001
0.0748308
0.0762057
0.077523
0.0787807
0.0799768
0.0811097
0.0821777
0.0831793
0.0841129
0.0849773
0.0857713
0.0864938
0.0871438
0.0877205
0.0882232
0.0886515
0.089005
0.0892835
0.0894869
0.0896154
0.0896694
0.0896495
0.0895563
0.0893908
0.0891541
0.0888478
0.0884733
0.0880326
0.0875279
0.0869615
0.0863361
0.0856547
0.0849206
0.0841374
0.0833091
0.0824399
0.0815346
0.0805983
0.0796364
0.0786549
0.0776603
0.0766594
0.0756597
0.0746692
0.0736965
0.0727507
0.0718416
0.0709797
0.0701759
0.0694416
0.0687884
0.068228
0.0677715
0.0674281
0.0672032
0.0670968
0.0671107
0.0672258
-0.000135922
6.40163e-07
4.86096e-06
-0.000117432
-0.000349596
-0.00068855
-0.00112895
-0.00166214
-0.00227801
-0.00296599
-0.0037154
-0.00451585
-0.0053573
-0.00623012
-0.00712521
-0.00803405
-0.00894868
-0.00986171
-0.0107663
-0.011656
-0.0125249
-0.0133678
-0.0141794
-0.0149554
-0.0156914
-0.0163836
-0.0170287
-0.0176233
-0.0181648
-0.0186504
-0.0190779
-0.0194453
-0.0197508
-0.0199928
-0.02017
-0.0202813
-0.0203258
-0.0203026
-0.0202113
-0.0200514
-0.0198227
-0.0195251
-0.0191587
-0.0187236
-0.0182203
-0.0176492
-0.0170108
-0.0163059
-0.0155353
-0.0146999
-0.0138006
-0.0128387
-0.0118153
-0.0107317
-0.00958936
-0.00838963
-0.00713409
-0.00582436
-0.0044621
-0.00304909
-0.00158713
-7.81117e-05
0.00147603
0.00307331
0.00471165
0.00638896
0.00810307
0.00985179
0.0116329
0.013444
0.0152829
0.0171471
0.0190343
0.020942
0.0228677
0.024809
0.0267633
0.0287281
0.0307008
0.0326788
0.0346595
0.0366403
0.0386186
0.0405918
0.0425571
0.044512
0.0464539
0.04838
0.0502879
0.0521748
0.0540382
0.0558756
0.0576843
0.0594619
0.0612058
0.0629136
0.064583
0.0662115
0.0677967
0.0693365
0.0708287
0.0722709
0.0736613
0.0749978
0.0762783
0.0775012
0.0786645
0.0797667
0.0808062
0.0817814
0.082691
0.0835337
0.0843084
0.0850142
0.08565
0.0862151
0.086709
0.0871312
0.0874814
0.0877594
0.0879653
0.0880992
0.0881616
0.0881531
0.0880743
0.0879263
0.0877103
0.0874277
0.08708
0.0866693
0.0861976
0.0856673
0.085081
0.0844418
0.0837529
0.0830177
0.0822402
0.0814245
0.0805753
0.0796974
0.0787962
0.0778775
0.0769474
0.0760124
0.0750797
0.0741568
0.0732518
0.0723731
0.0715298
0.0707314
0.0699877
0.0693088
0.0687047
0.0681854
0.0677601
0.0674365
0.0672192
0.0671102
0.0671244
0.0672665
-2.82092e-05
0.00012164
0.000127546
5.36725e-06
-0.000220958
-0.000546233
-0.000964766
-0.00146846
-0.00204834
-0.00269496
-0.00339878
-0.00415037
-0.00494061
-0.00576073
-0.00660233
-0.00745747
-0.00831868
-0.00917896
-0.0100318
-0.0108711
-0.0116913
-0.0124871
-0.0132538
-0.0139868
-0.0146821
-0.0153359
-0.0159449
-0.016506
-0.0170164
-0.0174734
-0.0178749
-0.0182189
-0.0185034
-0.0187271
-0.0188886
-0.0189866
-0.0190203
-0.0189889
-0.0188917
-0.0187284
-0.0184988
-0.0182026
-0.0178399
-0.0174108
-0.0169157
-0.016355
-0.0157292
-0.0150389
-0.0142849
-0.0134682
-0.0125895
-0.0116501
-0.010651
-0.00959354
-0.00847896
-0.00730871
-0.00608425
-0.00480715
-0.00347902
-0.00210157
-0.00067655
0.000794219
0.00230886
0.00386542
0.00546193
0.00709632
0.00876652
0.0104704
0.0122057
0.0139702
0.0157618
0.0175779
0.0194165
0.0212749
0.0231509
0.025042
0.0269458
0.0288597
0.0307813
0.0327081
0.0346375
0.036567
0.0384939
0.0404159
0.0423302
0.0442343
0.0461257
0.0480018
0.0498601
0.051698
0.053513
0.0553026
0.0570643
0.0587958
0.0604945
0.0621581
0.0637842
0.0653706
0.066915
0.0684152
0.069869
0.0712745
0.0726295
0.0739321
0.0751805
0.0763728
0.0775074
0.0785827
0.0795971
0.0805493
0.0814378
0.0822616
0.0830195
0.0837106
0.084334
0.0848891
0.0853752
0.0857921
0.0861393
0.0864169
0.0866248
0.0867634
0.086833
0.0868342
0.0867679
0.0866349
0.0864366
0.0861743
0.0858496
0.0854644
0.0850208
0.0845213
0.0839683
0.0833648
0.0827139
0.0820192
0.0812844
0.0805135
0.0797111
0.0788818
0.0780308
0.0771636
0.0762862
0.0754047
0.0745259
0.073657
0.0728054
0.0719791
0.0711865
0.070436
0.0697368
0.0690979
0.0685284
0.0680371
0.0676323
0.0673215
0.0671094
0.0670004
0.0670178
0.0671768
0.00022432
0.000363673
0.000360129
0.000232229
5.86507e-06
-0.000312537
-0.000716892
-0.00119939
-0.00175182
-0.00236571
-0.00303246
-0.00374353
-0.00449059
-0.00526561
-0.00606086
-0.00686899
-0.00768302
-0.00849638
-0.00930291
-0.0100969
-0.0108729
-0.0116259
-0.0123514
-0.013045
-0.0137028
-0.0143212
-0.0148969
-0.0154268
-0.0159082
-0.0163387
-0.0167159
-0.0170379
-0.0173029
-0.0175093
-0.0176559
-0.0177415
-0.0177651
-0.0177259
-0.0176234
-0.017457
-0.0172264
-0.0169316
-0.0165725
-0.0161492
-0.015662
-0.0151113
-0.0144975
-0.0138213
-0.0130833
-0.0122845
-0.0114256
-0.0105078
-0.00953204
-0.00849962
-0.00741178
-0.00626985
-0.00507528
-0.00382956
-0.00253425
-0.00119101
0.00019848
0.00163244
0.00310906
0.00462646
0.00618269
0.00777579
0.0094037
0.0110643
0.0127556
0.0144753
0.0162213
0.0179912
0.0197829
0.0215939
0.0234221
0.0252649
0.02712
0.0289851
0.0308575
0.032735
0.034615
0.0364951
0.0383727
0.0402454
0.0421107
0.043966
0.045809
0.047637
0.0494477
0.0512385
0.053007
0.0547508
0.0564675
0.0581546
0.0598099
0.0614311
0.0630158
0.0645619
0.0660671
0.0675294
0.0689466
0.0703168
0.071638
0.0729082
0.0741258
0.075289
0.0763962
0.0774458
0.0784363
0.0793664
0.0802349
0.0810405
0.0817824
0.0824595
0.0830711
0.0836165
0.0840952
0.0845069
0.0848513
0.0851283
0.0853381
0.085481
0.0855573
0.0855676
0.0855128
0.0853939
0.085212
0.0849686
0.0846653
0.0843039
0.0838865
0.0834154
0.0828932
0.0823227
0.081707
0.0810495
0.0803538
0.0796239
0.078864
0.0780788
0.0772732
0.0764524
0.075622
0.0747881
0.0739569
0.0731351
0.0723298
0.0715484
0.0707985
0.070088
0.069425
0.0688179
0.0682748
0.0678038
0.0674127
0.0671085
0.0668967
0.0667827
0.0667929
0.0669461
0.000617953
0.000725411
0.000699832
0.000558228
0.000324658
5.92495e-06
-0.000391779
-0.000860978
-0.00139404
-0.0019833
-0.002621
-0.0032994
-0.0040109
-0.00474812
-0.00550398
-0.00627166
-0.00704469
-0.00781693
-0.00858256
-0.00933617
-0.0100727
-0.0107873
-0.0114756
-0.0121335
-0.0127572
-0.0133433
-0.0138884
-0.0143897
-0.0148445
-0.0152504
-0.0156051
-0.0159068
-0.0161537
-0.0163442
-0.0164771
-0.0165511
-0.0165653
-0.0165189
-0.0164114
-0.0162421
-0.0160109
-0.0157175
-0.0153619
-0.0149442
-0.0144645
-0.0139234
-0.0133211
-0.0126583
-0.0119356
-0.0111539
-0.0103139
-0.0094167
-0.00846329
-0.00745481
-0.00639251
-0.00527766
-0.00411165
-0.00289593
-0.001632
-0.000321467
0.00103404
0.0024328
0.00387306
0.00535298
0.00687069
0.00842426
0.0100117
0.011631
0.0132802
0.014957
0.0166593
0.018385
0.0201319
0.0218976
0.0236799
0.0254766
0.0272852
0.0291034
0.0309289
0.0327593
0.0345921
0.036425
0.0382554
0.0400811
0.0418995
0.0437083
0.045505
0.0472871
0.0490523
0.0507982
0.0525224
0.0542225
0.0558962
0.0575412
0.0591551
0.0607359
0.0622812
0.0637888
0.0652568
0.066683
0.0680653
0.0694019
0.0706909
0.0719305
0.0731188
0.0742543
0.0753354
0.0763606
0.0773284
0.0782376
0.079087
0.0798754
0.080602
0.0812658
0.0818661
0.0824024
0.082874
0.0832807
0.0836223
0.0838988
0.0841102
0.0842569
0.0843393
0.084358
0.0843139
0.0842079
0.0840412
0.0838152
0.0835316
0.0831921
0.0827987
0.0823537
0.0818597
0.0813193
0.0807357
0.0801119
0.0794517
0.0787588
0.0780372
0.0772915
0.0765263
0.0757467
0.0749578
0.0741655
0.0733756
0.0725944
0.0718285
0.0710846
0.07037
0.0696917
0.0690573
0.0684742
0.06795
0.0674919
0.0671073
0.0668032
0.0665849
0.0664588
0.0664499
0.066576
0.00114208
0.00120076
0.00114173
0.000978106
0.000729733
0.000403304
4.85636e-06
-0.000458635
-0.000980109
-0.00155255
-0.00216893
-0.00282225
-0.00350558
-0.00421217
-0.0049355
-0.00566928
-0.00640751
-0.00714446
-0.00787472
-0.00859314
-0.00929494
-0.00997561
-0.0106309
-0.011257
-0.0118502
-0.0124071
-0.0129247
-0.0134001
-0.0138308
-0.0142144
-0.0145487
-0.0148318
-0.0150621
-0.0152381
-0.0153583
-0.0154218
-0.0154275
-0.0153746
-0.0152625
-0.0150908
-0.014859
-0.0145671
-0.0142149
-0.0138025
-0.0133301
-0.012798
-0.0122067
-0.0115566
-0.0108485
-0.010083
-0.00926091
-0.00838325
-0.00745099
-0.00646522
-0.00542713
-0.00433796
-0.00319904
-0.00201177
-0.00077761
0.000501897
0.00182516
0.00319052
0.00459627
0.00604064
0.00752179
0.00903787
0.0105869
0.012167
0.0137762
0.0154122
0.0170732
0.0187569
0.0204612
0.022184
0.0239229
0.0256757
0.0274402
0.0292141
0.030995
0.0327807
0.0345688
0.0363569
0.0381427
0.0399238
0.0416978
0.0434625
0.0452153
0.046954
0.0486762
0.0503796
0.0520618
0.0537206
0.0553537
0.0569588
0.0585337
0.0600762
0.0615843
0.0630557
0.0644885
0.0658806
0.06723
0.068535
0.0697937
0.0710042
0.072165
0.0732744
0.0743309
0.0753331
0.0762795
0.077169
0.0780005
0.0787727
0.0794849
0.0801362
0.0807258
0.0812533
0.0817182
0.0821202
0.082459
0.0827348
0.0829476
0.0830977
0.0831856
0.0832119
0.0831774
0.0830832
0.0829303
0.0827201
0.0824543
0.0821346
0.081763
0.0813416
0.080873
0.0803598
0.0798049
0.0792114
0.0785828
0.0779227
0.0772351
0.0765241
0.0757943
0.0750504
0.0742974
0.0735407
0.0727858
0.0720386
0.0713052
0.0705918
0.0699051
0.0692516
0.0686383
0.0680718
0.067559
0.0671067
0.0667217
0.0664105
0.0661787
0.0660326
0.0659935
0.0660758
0.00178276
0.0017798
0.00167765
0.00148427
0.0012138
0.000872621
0.000466502
1.76694e-06
-0.000515157
-0.00107786
-0.00167996
-0.00231511
-0.00297702
-0.00365953
-0.00435665
-0.00506259
-0.00577178
-0.00647892
-0.00717894
-0.00786704
-0.00853871
-0.00918968
-0.00981598
-0.0104139
-0.0109799
-0.0115109
-0.0120038
-0.012456
-0.012865
-0.0132284
-0.0135442
-0.0138106
-0.0140258
-0.0141885
-0.0142974
-0.0143512
-0.0143492
-0.0142904
-0.0141744
-0.0140005
-0.0137684
-0.013478
-0.0131292
-0.0127219
-0.0122565
-0.0117331
-0.0111522
-0.0105142
-0.00981983
-0.0090697
-0.00826464
-0.00740551
-0.0064933
-0.00552906
-0.00451391
-0.00344908
-0.00233583
-0.00117552
3.04183e-05
0.00128051
0.00257321
0.00390691
0.00527995
0.0066906
0.00813709
0.00961761
0.0111303
0.0126732
0.0142444
0.0158419
0.0174636
0.0191075
0.0207715
0.0224535
0.0241512
0.0258625
0.0275852
0.0293171
0.0310558
0.0327992
0.0345449
0.0362906
0.0380341
0.0397731
0.0415051
0.043228
0.0449394
0.046637
0.0483185
0.0499817
0.0516243
0.0532441
0.0548388
0.0564062
0.0579443
0.0594508
0.0609237
0.0623609
0.0637605
0.0651205
0.066439
0.0677142
0.0689442
0.0701275
0.0712623
0.0723472
0.0733806
0.0743611
0.0752874
0.0761584
0.0769729
0.0777299
0.0784285
0.0790679
0.0796476
0.0801668
0.0806252
0.0810226
0.0813587
0.0816336
0.0818475
0.0820005
0.0820933
0.0821264
0.0821006
0.082017
0.0818765
0.0816807
0.0814309
0.0811291
0.080777
0.0803768
0.079931
0.079442
0.0789126
0.078346
0.0777453
0.0771142
0.0764562
0.0757756
0.0750764
0.0743632
0.0736408
0.0729141
0.0721883
0.071469
0.0707618
0.0700724
0.069407
0.0687715
0.0681723
0.0676156
0.0671075
0.0666544
0.0662623
0.0659373
0.065685
0.0655114
0.0654326
0.0654579
0.00252544
0.00245125
0.00229817
0.00206831
0.0017692
0.00140681
0.000986651
0.000514338
-4.38778e-06
-0.000563737
-0.00115792
-0.00178118
-0.00242781
-0.00309222
-0.00376891
-0.00445257
-0.00513806
-0.00582045
-0.00649506
-0.00715739
-0.0078032
-0.0084285
-0.00902953
-0.00960276
-0.0101449
-0.0106529
-0.011124
-0.0115554
-0.0119449
-0.0122903
-0.0125895
-0.0128408
-0.0130425
-0.0131933
-0.0132919
-0.0133371
-0.0133282
-0.0132642
-0.0131446
-0.0129689
-0.0127368
-0.012448
-0.0121025
-0.0117003
-0.0112415
-0.0107264
-0.0101554
-0.00952895
-0.00884764
-0.00811212
-0.00732315
-0.0064816
-0.00558839
-0.00464453
-0.00365113
-0.00260934
-0.00152041
-0.000385648
0.00079357
0.0020158
0.00327955
0.00458326
0.0059253
0.00730402
0.00871767
0.0101645
0.0116427
0.0131504
0.0146857
0.0162466
0.0178312
0.0194374
0.0210632
0.0227065
0.0243653
0.0260373
0.0277204
0.0294125
0.0311113
0.0328146
0.0345202
0.0362259
0.0379294
0.0396285
0.0413209
0.0430043
0.0446765
0.0463353
0.0479785
0.0496037
0.0512089
0.0527918
0.0543503
0.0558823
0.0573855
0.0588581
0.0602979
0.0617029
0.0630713
0.064401
0.0656904
0.0669375
0.0681407
0.0692983
0.0704087
0.0714704
0.0724821
0.0734422
0.0743497
0.0752032
0.0760018
0.0767444
0.0774303
0.0780586
0.0786287
0.07914
0.0795923
0.0799852
0.0803187
0.0805926
0.0808072
0.0809628
0.0810599
0.081099
0.0810809
0.0810067
0.0808774
0.0806943
0.080459
0.080173
0.0798384
0.0794571
0.0790314
0.0785639
0.0780572
0.0775141
0.076938
0.076332
0.0756998
0.0750451
0.0743721
0.073685
0.0729881
0.0722863
0.0715843
0.0708872
0.0702003
0.069529
0.0688787
0.0682551
0.0676639
0.0671107
0.0666012
0.066141
0.0657357
0.0653909
0.0651117
0.064904
0.0647774
0.0647359
0.00335601
0.00320366
0.00299347
0.00272149
0.00238811
0.00199882
0.00155889
0.00107326
0.000546986
-1.47615e-05
-0.000606774
-0.00122385
-0.00186082
-0.0025126
-0.00317419
-0.00384071
-0.00450744
-0.00516983
-0.00582352
-0.00646434
-0.00708834
-0.00769176
-0.00827107
-0.00882296
-0.00934431
-0.00983223
-0.010284
-0.0106972
-0.0110695
-0.0113989
-0.0116833
-0.0119211
-0.0121108
-0.012251
-0.0123404
-0.012378
-0.0123629
-0.0122944
-0.0121718
-0.0119947
-0.0117627
-0.0114757
-0.0111334
-0.0107361
-0.0102837
-0.00977656
-0.00921501
-0.00859951
-0.00793061
-0.00720894
-0.00643524
-0.00561032
-0.00473509
-0.00381053
-0.00283769
-0.00181771
-0.000751781
0.00035882
0.00151276
0.00270864
0.00394501
0.00522034
0.00653308
0.00788158
0.00926419
0.0106792
0.0121247
0.0135991
0.0151004
0.0166268
0.0181762
0.0197468
0.0213365
0.0229434
0.0245653
0.0262001
0.0278459
0.0295004
0.0311614
0.0328269
0.0344947
0.0361626
0.0378283
0.0394897
0.0411447
0.0427909
0.0444262
0.0460484
0.0476554
0.0492449
0.0508148
0.0523631
0.0538875
0.055386
0.0568565
0.0582971
0.0597058
0.0610806
0.0624195
0.0637209
0.0649828
0.0662036
0.0673816
0.0685151
0.0696026
0.0706427
0.0716339
0.072575
0.0734647
0.0743018
0.0750855
0.0758146
0.0764884
0.0771062
0.0776673
0.0781712
0.0786176
0.0790063
0.079337
0.0796098
0.0798249
0.0799826
0.0800833
0.0801277
0.0801164
0.0800506
0.0799311
0.0797594
0.0795368
0.0792649
0.0789457
0.078581
0.0781731
0.0777244
0.0772373
0.0767148
0.0761598
0.0755755
0.0749653
0.0743328
0.0736817
0.0730161
0.0723402
0.0716584
0.0709751
0.0702951
0.0696232
0.0689644
0.0683238
0.0677064
0.0671175
0.0665621
0.0660455
0.0655727
0.0651487
0.0647785
0.0644669
0.0642193
0.0640386
0.0639234
0.00426117
0.00402585
0.00375382
0.00343506
0.00306263
0.00264155
0.00217683
0.00167276
0.00113378
0.000564451
-3.05773e-05
-0.000646631
-0.00127905
-0.00192322
-0.00257459
-0.00322871
-0.00388125
-0.00452802
-0.005165
-0.00578831
-0.00639428
-0.0069794
-0.00754037
-0.00807407
-0.00857757
-0.00904813
-0.00948322
-0.00988048
-0.0102377
-0.010553
-0.0108244
-0.0110504
-0.0112295
-0.0113602
-0.0114416
-0.0114725
-0.0114521
-0.0113796
-0.0112545
-0.0110764
-0.0108448
-0.0105596
-0.0102207
-0.00982804
-0.00938185
-0.00888232
-0.00832979
-0.0077247
-0.00706756
-0.00635902
-0.00559976
-0.00479058
-0.00393235
-0.00302602
-0.00207262
-0.00107323
-2.90299e-05
0.00105875
0.00218882
0.00335982
0.00457033
0.00581888
0.00710394
0.00842393
0.00977721
0.0111621
0.0125769
0.0140198
0.0154891
0.0169828
0.0184991
0.020036
0.0215917
0.0231641
0.0247512
0.0263511
0.0279616
0.0295806
0.0312061
0.032836
0.0344681
0.0361003
0.0377305
0.0393565
0.0409761
0.0425873
0.0441879
0.0457757
0.0473486
0.0489045
0.0504413
0.051957
0.0534494
0.0549165
0.0563564
0.057767
0.0591464
0.0604928
0.0618042
0.063079
0.0643152
0.0655113
0.0666656
0.0677766
0.0688426
0.0698624
0.0708345
0.0717577
0.0726308
0.0734527
0.0742223
0.0749388
0.0756013
0.0762092
0.0767618
0.0772587
0.0776994
0.0780839
0.0784119
0.0786835
0.0788988
0.0790581
0.0791619
0.0792108
0.0792055
0.0791469
0.0790361
0.0788743
0.0786628
0.0784033
0.0780975
0.0777474
0.0773549
0.0769224
0.0764524
0.0759475
0.0754105
0.0748445
0.0742527
0.0736385
0.0730054
0.0723573
0.071698
0.0710316
0.0703624
0.0696946
0.0690328
0.0683816
0.0677455
0.0671292
0.0665374
0.0659748
0.0654461
0.0649557
0.064508
0.0641074
0.0637587
0.0634665
0.0632271
0.063033
0.00522851
0.00490711
0.00456975
0.00420048
0.00378502
0.00332797
0.00283411
0.00230714
0.00175085
0.0011693
0.000566595
-5.30945e-05
-0.000685582
-0.0013267
-0.00197232
-0.0026184
-0.00326097
-0.0038962
-0.00452036
-0.0051299
-0.00572138
-0.00629157
-0.00683736
-0.00735585
-0.00784429
-0.0083001
-0.0087209
-0.00910445
-0.0094487
-0.00975177
-0.0100119
-0.0102276
-0.0103973
-0.0105199
-0.0105943
-0.0106194
-0.0105944
-0.0105187
-0.0103916
-0.0102128
-0.00998181
-0.00969858
-0.00936296
-0.00897497
-0.00853474
-0.00804249
-0.00749856
-0.00690335
-0.00625738
-0.00556126
-0.00481565
-0.00402134
-0.00317916
-0.00229004
-0.00135496
-0.000375001
0.000648715
0.00171499
0.00282256
0.0039701
0.00515625
0.00637955
0.00763853
0.00893164
0.0102573
0.0116139
0.0129996
0.0144129
0.015852
0.0173149
0.0188
0.0203053
0.0218289
0.0233689
0.0249233
0.0264902
0.0280675
0.0296532
0.0312452
0.0328416
0.0344402
0.0360389
0.0376356
0.0392283
0.0408149
0.0423932
0.0439611
0.0455166
0.0470576
0.048582
0.0500877
0.0515728
0.0530352
0.054473
0.055884
0.0572666
0.0586187
0.0599385
0.0612242
0.062474
0.0636863
0.0648593
0.0659916
0.0670814
0.0681275
0.0691283
0.0700826
0.0709891
0.0718466
0.0726542
0.0734107
0.0741153
0.0747673
0.0753658
0.0759105
0.0764007
0.0768361
0.0772165
0.0775418
0.077812
0.0780272
0.0781878
0.0782942
0.0783469
0.0783466
0.0782943
0.0781909
0.0780377
0.0778359
0.077587
0.0772928
0.0769551
0.0765758
0.0761572
0.0757015
0.0752114
0.0746895
0.0741387
0.0735619
0.0729625
0.0723438
0.0717092
0.0710625
0.0704075
0.069748
0.0690881
0.0684319
0.0677835
0.0671473
0.0665274
0.0659282
0.0653538
0.0648083
0.0642959
0.0638202
0.0633852
0.0629952
0.0626548
0.062353
0.0620767
0.00624668
0.00583731
0.0054322
0.00500951
0.00454775
0.00405121
0.00352451
0.00297073
0.00239312
0.00179523
0.00118067
0.000553152
-8.35817e-05
-0.000725786
-0.00136974
-0.00201176
-0.00264824
-0.00327568
-0.00389065
-0.00448987
-0.00507019
-0.00562858
-0.00616218
-0.00666826
-0.00714427
-0.0075878
-0.0079966
-0.00836857
-0.00870177
-0.00899443
-0.00924491
-0.00945172
-0.00961353
-0.00972914
-0.0097975
-0.00981768
-0.00978889
-0.00971048
-0.00958189
-0.00940272
-0.00917266
-0.00889151
-0.0085592
-0.00817575
-0.00774128
-0.00725601
-0.00672026
-0.00613444
-0.00549905
-0.00481466
-0.00408195
-0.00330166
-0.0024746
-0.00160169
-0.000683869
0.00027781
0.00128225
0.00232829
0.00341469
0.00454018
0.0057034
0.00690297
0.00813742
0.00940527
0.0107049
0.0120349
0.0133934
0.0147788
0.0161895
0.0176236
0.0190793
0.0205548
0.0220483
0.0235578
0.0250815
0.0266174
0.0281636
0.029718
0.0312787
0.0328436
0.0344107
0.035978
0.0375434
0.0391049
0.0406605
0.0422079
0.0437453
0.0452706
0.0467817
0.0482766
0.0497533
0.0512098
0.0526442
0.0540545
0.0554387
0.056795
0.0581216
0.0594166
0.0606783
0.061905
0.0630949
0.0642464
0.0653581
0.0664283
0.0674557
0.0684389
0.0693766
0.0702675
0.0711106
0.0719048
0.0726491
0.0733427
0.0739848
0.0745746
0.0751117
0.0755956
0.0760259
0.0764024
0.076725
0.0769937
0.0772087
0.0773701
0.0774785
0.0775343
0.0775383
0.0774913
0.0773942
0.0772483
0.0770547
0.0768149
0.0765305
0.0762033
0.0758351
0.075428
0.0749843
0.0745064
0.0739967
0.0734581
0.0728933
0.0723054
0.0716975
0.071073
0.0704351
0.0697875
0.0691337
0.0684776
0.0678228
0.0671732
0.0665327
0.0659051
0.0652942
0.0647038
0.0641376
0.0635992
0.0630919
0.0626188
0.0621843
0.0617927
0.061426
0.0610654
0.00730533
0.00680702
0.00633254
0.00585428
0.00534362
0.00480467
0.00424196
0.00365802
0.00305558
0.00243771
0.00180759
0.00116849
0.000523746
-0.000123294
-0.00076928
-0.00141089
-0.00204484
-0.00266794
-0.00327706
-0.00386918
-0.00444141
-0.00499094
-0.00551513
-0.00601145
-0.00647752
-0.00691108
-0.00731004
-0.00767244
-0.00799645
-0.00828041
-0.00852277
-0.00872215
-0.00887727
-0.00898701
-0.00905037
-0.00906647
-0.00903459
-0.00895409
-0.00882445
-0.0086453
-0.00841634
-0.0081374
-0.00780841
-0.00742939
-0.00700048
-0.00652189
-0.00599394
-0.00541702
-0.00479163
-0.00411832
-0.00339776
-0.00263067
-0.00181784
-0.000960157
-5.85556e-05
0.000885954
0.0018723
0.00289934
0.00396588
0.00507067
0.00621239
0.00738969
0.00860114
0.00984528
0.0111206
0.0124255
0.0137585
0.0151178
0.0165019
0.0179089
0.0193371
0.0207847
0.02225
0.023731
0.025226
0.0267329
0.0282499
0.029775
0.0313063
0.0328418
0.0343795
0.0359174
0.0374536
0.0389859
0.0405124
0.0420312
0.04354
0.0450371
0.0465203
0.0479877
0.0494374
0.0508673
0.0522755
0.0536602
0.0550194
0.0563514
0.0576543
0.0589262
0.0601656
0.0613707
0.0625398
0.0636714
0.064764
0.065816
0.0668261
0.067793
0.0687152
0.0695918
0.0704215
0.0712033
0.0719363
0.0726196
0.0732524
0.0738342
0.0743642
0.0748421
0.0752676
0.0756403
0.0759602
0.0762273
0.0764417
0.0766037
0.0767136
0.0767719
0.0767794
0.0767367
0.0766449
0.076505
0.0763183
0.076086
0.0758098
0.0754912
0.0751321
0.0747345
0.0743004
0.0738321
0.0733321
0.0728029
0.0722471
0.0716676
0.0710674
0.0704495
0.069817
0.0691733
0.0685216
0.0678655
0.0672084
0.0665538
0.0659051
0.0652659
0.0646396
0.0640296
0.0634392
0.0628714
0.0623292
0.0618152
0.0613336
0.0608885
0.0604551
0.060009
0.00839511
0.00780754
0.0072627
0.0067273
0.00616573
0.00558199
0.00498062
0.00436365
0.00373333
0.0030923
0.00244333
0.00178931
0.00113318
0.000477924
-0.000173455
-0.000817964
-0.00145264
-0.00207458
-0.00268092
-0.00326892
-0.00383591
-0.00437932
-0.00489671
-0.00538573
-0.00584417
-0.00626996
-0.00666113
-0.00701585
-0.00733243
-0.0076093
-0.00784503
-0.00803829
-0.00818792
-0.00829286
-0.00835216
-0.008365
-0.00833071
-0.00824868
-0.00811844
-0.00793964
-0.007712
-0.00743538
-0.00710971
-0.00673504
-0.00631149
-0.00583929
-0.00531874
-0.00475025
-0.0041343
-0.00347144
-0.0027623
-0.0020076
-0.00120813
-0.000364727
0.00052168
0.00145011
0.0024195
0.00342876
0.00447671
0.00556213
0.00668374
0.0078402
0.00903014
0.0102521
0.0115047
0.0127862
0.0140953
0.0154302
0.0167894
0.0181711
0.0195736
0.0209952
0.0224341
0.0238885
0.0253566
0.0268364
0.0283262
0.029824
0.0313279
0.032836
0.0343463
0.0358568
0.0373657
0.0388709
0.0403704
0.0418623
0.0433447
0.0448155
0.0462728
0.0477147
0.0491392
0.0505444
0.0519284
0.0532894
0.0546254
0.0559348
0.0572157
0.0584663
0.059685
0.0608702
0.0620201
0.0631333
0.0642082
0.0652434
0.0662375
0.0671893
0.0680973
0.0689606
0.0697779
0.0705483
0.0712708
0.0719445
0.0725689
0.073143
0.0736665
0.0741389
0.0745597
0.0749288
0.0752461
0.0755115
0.0757251
0.0758872
0.0759982
0.0760585
0.0760687
0.0760295
0.075942
0.075807
0.0756258
0.0753996
0.0751299
0.0748183
0.0744664
0.0740761
0.0736495
0.0731887
0.0726958
0.0721734
0.0716239
0.07105
0.0704544
0.06984
0.0692098
0.0685666
0.0679137
0.0672542
0.0665913
0.0659281
0.0652679
0.0646137
0.0639687
0.0633359
0.0627181
0.0621181
0.0615383
0.0609808
0.06045
0.0599498
0.0594485
0.0589164
0.00950755
0.00883089
0.00821516
0.00762153
0.00700752
0.00637709
0.00573486
0.00508243
0.00442161
0.00375464
0.00308395
0.00241204
0.0017415
0.00107499
0.00041518
-0.000235241
-0.000873606
-0.00149728
-0.00210369
-0.00269031
-0.0032547
-0.00379452
-0.00430752
-0.00479154
-0.00524454
-0.00566459
-0.00604989
-0.00639872
-0.00670952
-0.00698083
-0.00721131
-0.00739974
-0.00754502
-0.00764616
-0.00770229
-0.00771265
-0.00767659
-0.00759357
-0.00746315
-0.007285
-0.0070589
-0.00678469
-0.00646235
-0.00609191
-0.00567353
-0.00520743
-0.00469392
-0.0041334
-0.00352633
-0.00287328
-0.00217486
-0.00143177
-0.000644791
0.000185255
0.00105746
0.00197087
0.00292444
0.00391711
0.00494771
0.00601506
0.00711791
0.00825495
0.00942482
0.0106261
0.0118574
0.0131173
0.014404
0.0157162
0.0170522
0.0184103
0.0197889
0.0211863
0.0226007
0.0240303
0.0254733
0.026928
0.0283925
0.0298649
0.0313433
0.0328259
0.0343107
0.0357959
0.0372794
0.0387594
0.0402339
0.0417011
0.0431588
0.0446053
0.0460387
0.0474569
0.0488581
0.0502405
0.0516021
0.0529412
0.0542558
0.0555444
0.056805
0.058036
0.0592357
0.0604024
0.0615347
0.0626309
0.0636896
0.0647093
0.0656888
0.0666266
0.0675217
0.0683727
0.0691786
0.0699385
0.0706514
0.0713164
0.0719328
0.0725
0.0730174
0.0734845
0.0739011
0.0742667
0.0745814
0.074845
0.0750577
0.0752197
0.0753313
0.0753929
0.0754051
0.0753687
0.0752845
0.0751534
0.0749765
0.074755
0.0744904
0.0741841
0.0738376
0.0734529
0.0730317
0.072576
0.072088
0.07157
0.0710242
0.0704532
0.0698595
0.0692458
0.0686148
0.0679693
0.0673121
0.0666461
0.0659742
0.0652994
0.0646245
0.0639523
0.0632856
0.0626271
0.0619793
0.0613446
0.0607249
0.0601221
0.0595404
0.0589838
0.0584141
0.057796
0.0106349
0.00986973
0.00918297
0.00853038
0.00786279
0.0071842
0.00649933
0.00580938
0.00511581
0.00442051
0.00372556
0.00303314
0.00234551
0.00166501
0.00099404
0.000334981
-0.00030977
-0.000937839
-0.00154689
-0.00213465
-0.00269889
-0.00323746
-0.00374831
-0.00422947
-0.00467905
-0.00509528
-0.0054765
-0.00582112
-0.0061277
-0.00639488
-0.00662143
-0.00680622
-0.00694821
-0.00704651
-0.00710031
-0.0071089
-0.00707169
-0.00698818
-0.00685798
-0.00668079
-0.0064564
-0.00618469
-0.00586566
-0.00549936
-0.00508595
-0.00462566
-0.00411881
-0.00356579
-0.00296708
-0.00232321
-0.00163482
-0.000902573
-0.00012724
0.000690361
0.00154935
0.00244877
0.00338763
0.00436486
0.00537935
0.0064299
0.00751532
0.00863431
0.00978555
0.0109677
0.0121793
0.0134189
0.014685
0.0159761
0.0172905
0.0186268
0.0199832
0.0213581
0.0227497
0.0241563
0.0255762
0.0270076
0.0284486
0.0298975
0.0313524
0.0328114
0.0342727
0.0357343
0.0371945
0.0386512
0.0401026
0.0415468
0.0429819
0.044406
0.0458172
0.0472137
0.0485935
0.0499549
0.0512959
0.0526148
0.0539099
0.0551793
0.0564213
0.0576343
0.0588165
0.0599665
0.0610826
0.0621633
0.0632072
0.0642128
0.0651788
0.066104
0.0669871
0.067827
0.0686226
0.0693728
0.0700769
0.0707339
0.0713432
0.0719039
0.0724157
0.072878
0.0732905
0.0736529
0.073965
0.0742268
0.0744384
0.0746
0.0747118
0.0747743
0.074788
0.0747535
0.0746717
0.0745434
0.0743697
0.0741518
0.0738908
0.0735883
0.0732456
0.0728646
0.0724469
0.0719944
0.0715092
0.0709932
0.0704488
0.0698783
0.0692839
0.0686682
0.0680337
0.067383
0.0667187
0.0660434
0.0653598
0.0646705
0.0639782
0.0632853
0.0625943
0.0619076
0.0612275
0.0605559
0.0598945
0.0592447
0.0586109
0.0579971
0.0573587
0.0566552
0.0117701
0.0109173
0.0101597
0.0094477
0.00872574
0.00799784
0.00726887
0.00653972
0.0058115
0.00508579
0.00436437
0.00364912
0.00294202
0.00224512
0.00156053
0.000890368
0.000236787
-0.00039809
-0.00101216
-0.00160336
-0.00216968
-0.00270917
-0.00321995
-0.00370023
-0.00414827
-0.00456247
-0.00494127
-0.00528325
-0.00558706
-0.00585145
-0.0060753
-0.00625756
-0.00639728
-0.00649364
-0.00654589
-0.0065534
-0.00651561
-0.00643208
-0.00630246
-0.00612648
-0.00590397
-0.00563484
-0.0053191
-0.00495682
-0.00454818
-0.00409341
-0.00359284
-0.00304688
-0.00245598
-0.00182069
-0.00114163
-0.000419471
0.000345039
0.00115109
0.00199782
0.00288429
0.00380952
0.00477246
0.00577201
0.00680703
0.00787631
0.0089786