/*--------------------------------*- C++ -*----------------------------------*\
  =========                 |
  \\      /  F ield         | OpenFOAM: The Open Source CFD Toolbox
   \\    /   O peration     | Website:  https://openfoam.org
    \\  /    A nd           | Version:  7
     \\/     M anipulation  |
\*---------------------------------------------------------------------------*/
FoamFile
{
    version     2.0;
    format      ascii;
    class       surfaceScalarField;
    location    "0.375";
    object      phi;
}
// * * * * * * * * * * * * * * * * * * * * * * * * * * * * * * * * * * * * * //

dimensions      [0 3 -1 0 0 0 0];

internalField   nonuniform List<scalar> 
50880
(
5.94863e-12
-6.28222e-12
3.61899e-11
-3.0244e-11
8.10944e-11
-4.49043e-11
1.30741e-10
-4.96318e-11
1.77996e-10
-4.72379e-11
2.17876e-10
-3.98769e-11
2.46947e-10
-2.90832e-11
2.62903e-10
-1.5966e-11
2.64225e-10
-1.32015e-12
2.49948e-10
1.42869e-11
2.19506e-10
3.04486e-11
1.72634e-10
4.68707e-11
1.09298e-10
6.33328e-11
2.96332e-11
7.9664e-11
-6.60956e-11
9.57316e-11
-1.77526e-10
1.11434e-10
-3.04217e-10
1.26693e-10
-4.45667e-10
1.41449e-10
-6.01323e-10
1.55656e-10
-7.706e-10
1.69277e-10
-9.52882e-10
1.82283e-10
-1.14753e-09
1.94652e-10
-1.3539e-09
2.06369e-10
-1.57132e-09
2.17424e-10
-1.79913e-09
2.27809e-10
-2.03665e-09
2.3752e-10
-2.28321e-09
2.46555e-10
-2.53812e-09
2.54915e-10
-2.80072e-09
2.62602e-10
-3.07034e-09
2.69622e-10
-3.34632e-09
2.75978e-10
-3.628e-09
2.81678e-10
-3.91473e-09
2.86729e-10
-4.20587e-09
2.91139e-10
-4.50079e-09
2.94918e-10
-4.79886e-09
2.98075e-10
-5.09949e-09
3.00621e-10
-5.40205e-09
3.02565e-10
-5.70597e-09
3.03919e-10
-6.01067e-09
3.04695e-10
-6.31557e-09
3.04904e-10
-6.62013e-09
3.04558e-10
-6.9238e-09
3.03669e-10
-7.22604e-09
3.02249e-10
-7.52635e-09
3.0031e-10
-7.82422e-09
2.97866e-10
-8.11915e-09
2.94929e-10
-8.41066e-09
2.91512e-10
-8.69829e-09
2.87628e-10
-8.98158e-09
2.83288e-10
-9.26008e-09
2.78507e-10
-9.53338e-09
2.73298e-10
-9.80105e-09
2.67673e-10
-1.00627e-08
2.61645e-10
-1.03179e-08
2.55228e-10
-1.05664e-08
2.48435e-10
-1.08076e-08
2.41278e-10
-1.10414e-08
2.33772e-10
-1.12673e-08
2.2593e-10
-1.14851e-08
2.17764e-10
-1.16944e-08
2.09288e-10
-1.18949e-08
2.00515e-10
-1.20864e-08
1.91459e-10
-1.22685e-08
1.82133e-10
-1.2441e-08
1.72551e-10
-1.26038e-08
1.62726e-10
-1.27564e-08
1.52673e-10
-1.28989e-08
1.42404e-10
-1.30308e-08
1.31934e-10
-1.31521e-08
1.21276e-10
-1.32625e-08
1.10444e-10
-1.3362e-08
9.94539e-11
-1.34503e-08
8.83182e-11
-1.35273e-08
7.70516e-11
-1.3593e-08
6.56686e-11
-1.36472e-08
5.41837e-11
-1.36898e-08
4.26119e-11
-1.37208e-08
3.09679e-11
-1.374e-08
1.92665e-11
-1.37475e-08
7.52286e-12
-1.37433e-08
-4.24776e-12
-1.37273e-08
-1.60299e-11
-1.36995e-08
-2.7808e-11
-1.36599e-08
-3.95664e-11
-1.36086e-08
-5.12893e-11
-1.35456e-08
-6.29609e-11
-1.34711e-08
-7.45651e-11
-1.3385e-08
-8.60856e-11
-1.32875e-08
-9.75058e-11
-1.31787e-08
-1.0881e-10
-1.30587e-08
-1.1998e-10
-1.29277e-08
-1.31001e-10
-1.27858e-08
-1.41855e-10
-1.26333e-08
-1.52526e-10
-1.24703e-08
-1.62997e-10
-1.22971e-08
-1.7325e-10
-1.21138e-08
-1.83269e-10
-1.19208e-08
-1.93037e-10
-1.17182e-08
-2.02535e-10
-1.15065e-08
-2.11749e-10
-1.12858e-08
-2.20659e-10
-1.10566e-08
-2.2925e-10
-1.08191e-08
-2.37504e-10
-1.05737e-08
-2.45404e-10
-1.03207e-08
-2.52933e-10
-1.00607e-08
-2.60076e-10
-9.79386e-09
-2.66815e-10
-9.52072e-09
-2.73134e-10
-9.24171e-09
-2.79017e-10
-8.95726e-09
-2.84447e-10
-8.66785e-09
-2.8941e-10
-8.37396e-09
-2.93889e-10
-8.07609e-09
-2.97871e-10
-7.77475e-09
-3.01339e-10
-7.47048e-09
-3.04279e-10
-7.1638e-09
-3.06678e-10
-6.85528e-09
-3.08523e-10
-6.54548e-09
-3.09799e-10
-6.23498e-09
-3.10495e-10
-5.92439e-09
-3.10598e-10
-5.61429e-09
-3.10097e-10
-5.30531e-09
-3.08981e-10
-4.99807e-09
-3.0724e-10
-4.69321e-09
-3.04863e-10
-4.39136e-09
-3.01846e-10
-4.09318e-09
-2.98179e-10
-3.79933e-09
-2.93853e-10
-3.51047e-09
-2.88863e-10
-3.22727e-09
-2.83203e-10
-2.9504e-09
-2.76872e-10
-2.68053e-09
-2.69866e-10
-2.41835e-09
-2.62184e-10
-2.16452e-09
-2.53827e-10
-1.91972e-09
-2.44797e-10
-1.68462e-09
-2.35098e-10
-1.45989e-09
-2.24735e-10
-1.24618e-09
-2.13717e-10
-1.04412e-09
-2.02055e-10
-8.54356e-10
-1.89766e-10
-6.77491e-10
-1.76866e-10
-5.1411e-10
-1.63381e-10
-3.6477e-10
-1.49339e-10
-2.29994e-10
-1.34777e-10
-1.10256e-10
-1.19738e-10
-5.97656e-12
-1.04279e-10
8.24938e-11
-8.84704e-11
1.54887e-10
-7.23959e-11
2.11045e-10
-5.61619e-11
2.50951e-10
-3.99068e-11
2.74765e-10
-2.38105e-11
2.8287e-10
-8.10367e-12
2.75955e-10
6.91213e-12
2.55118e-10
2.08314e-11
2.22016e-10
3.30972e-11
1.79083e-10
4.29311e-11
1.2985e-10
4.92399e-11
7.93416e-11
5.05205e-11
3.46246e-11
4.47182e-11
5.3397e-12
2.92594e-11
5.30388e-12
3.00604e-11
-3.63389e-11
1.01201e-10
-1.01383e-10
1.95454e-10
-1.39175e-10
2.95768e-10
-1.49963e-10
3.87799e-10
-1.39264e-10
4.60308e-10
-1.12363e-10
5.04821e-10
-7.35822e-11
5.15148e-10
-2.62968e-11
4.86904e-10
2.6913e-11
4.17096e-10
8.40911e-11
3.03803e-10
1.43748e-10
1.45933e-10
2.04747e-10
-5.69492e-11
2.66217e-10
-3.04767e-10
3.27479e-10
-5.97039e-10
3.88002e-10
-9.32967e-10
4.47363e-10
-1.3115e-09
5.05232e-10
-1.7314e-09
5.61347e-10
-2.19124e-09
6.15502e-10
-2.6895e-09
6.67533e-10
-3.22453e-09
7.17314e-10
-3.79462e-09
7.64743e-10
-4.398e-09
8.09746e-10
-5.03284e-09
8.52266e-10
-5.69729e-09
8.92262e-10
-6.38948e-09
9.29709e-10
-7.10751e-09
9.64591e-10
-7.8495e-09
9.969e-10
-8.61354e-09
1.02664e-09
-9.39773e-09
1.05382e-09
-1.02002e-08
1.07846e-09
-1.10191e-08
1.10057e-09
-1.18525e-08
1.12017e-09
-1.26987e-08
1.13731e-09
-1.35558e-08
1.152e-09
-1.4422e-08
1.16429e-09
-1.52956e-08
1.17421e-09
-1.61748e-08
1.18179e-09
-1.7058e-08
1.18708e-09
-1.79434e-08
1.19012e-09
-1.88295e-08
1.19096e-09
-1.97145e-08
1.18963e-09
-2.05971e-08
1.18619e-09
-2.14755e-08
1.18067e-09
-2.23483e-08
1.17314e-09
-2.32141e-08
1.16363e-09
-2.40713e-08
1.15219e-09
-2.49187e-08
1.13887e-09
-2.57548e-08
1.12373e-09
-2.65783e-08
1.10681e-09
-2.7388e-08
1.08816e-09
-2.81825e-08
1.06784e-09
-2.89607e-08
1.04588e-09
-2.97214e-08
1.02235e-09
-3.04635e-08
9.97295e-10
-3.11858e-08
9.70765e-10
-3.18873e-08
9.42811e-10
-3.25671e-08
9.13487e-10
-3.3224e-08
8.82843e-10
-3.38571e-08
8.50932e-10
-3.44657e-08
8.17806e-10
-3.50487e-08
7.83517e-10
-3.56053e-08
7.48117e-10
-3.61348e-08
7.11661e-10
-3.66365e-08
6.742e-10
-3.71096e-08
6.35788e-10
-3.75534e-08
5.9648e-10
-3.79673e-08
5.56328e-10
-3.83507e-08
5.15388e-10
-3.87032e-08
4.73714e-10
-3.90241e-08
4.31361e-10
-3.9313e-08
3.88385e-10
-3.95695e-08
3.44842e-10
-3.97933e-08
3.00788e-10
-3.99839e-08
2.5628e-10
-4.01411e-08
2.11375e-10
-4.02646e-08
1.66132e-10
-4.03542e-08
1.20608e-10
-4.04098e-08
7.48622e-11
-4.04313e-08
2.89542e-11
-4.04185e-08
-1.70562e-11
-4.03714e-08
-6.31087e-11
-4.029e-08
-1.09142e-10
-4.01745e-08
-1.55095e-10
-4.00249e-08
-2.00905e-10
-3.98414e-08
-2.46511e-10
-3.96241e-08
-2.91848e-10
-3.93733e-08
-3.36853e-10
-3.90893e-08
-3.81463e-10
-3.87725e-08
-4.25613e-10
-3.84233e-08
-4.69238e-10
-3.8042e-08
-5.12273e-10
-3.76292e-08
-5.54652e-10
-3.71854e-08
-5.96309e-10
-3.67113e-08
-6.37179e-10
-3.62073e-08
-6.77195e-10
-3.56743e-08
-7.16291e-10
-3.51129e-08
-7.54399e-10
-3.4524e-08
-7.91454e-10
-3.39084e-08
-8.27388e-10
-3.32669e-08
-8.62137e-10
-3.26005e-08
-8.95632e-10
-3.19102e-08
-9.27809e-10
-3.1197e-08
-9.58601e-10
-3.0462e-08
-9.87943e-10
-2.97063e-08
-1.01577e-09
-2.89311e-08
-1.04202e-09
-2.81376e-08
-1.06663e-09
-2.73271e-08
-1.08953e-09
-2.65009e-08
-1.11067e-09
-2.56603e-08
-1.12999e-09
-2.48068e-08
-1.14741e-09
-2.39418e-08
-1.1629e-09
-2.30667e-08
-1.17638e-09
-2.21832e-08
-1.18781e-09
-2.12927e-08
-1.19713e-09
-2.0397e-08
-1.20429e-09
-1.94975e-08
-1.20924e-09
-1.85961e-08
-1.21194e-09
-1.76943e-08
-1.21233e-09
-1.67941e-08
-1.21038e-09
-1.5897e-08
-1.20604e-09
-1.5005e-08
-1.19928e-09
-1.41198e-08
-1.19006e-09
-1.32433e-08
-1.17835e-09
-1.23773e-08
-1.16413e-09
-1.15238e-08
-1.14736e-09
-1.06846e-08
-1.12804e-09
-9.8617e-09
-1.10614e-09
-9.05692e-09
-1.08166e-09
-8.27221e-09
-1.05458e-09
-7.50949e-09
-1.02491e-09
-6.77066e-09
-9.92657e-10
-6.05762e-09
-9.57833e-10
-5.37225e-09
-9.20464e-10
-4.71641e-09
-8.80578e-10
-4.09191e-09
-8.38218e-10
-3.50053e-09
-7.93437e-10
-2.944e-09
-7.46305e-10
-2.42396e-09
-6.96907e-10
-1.94199e-09
-6.45348e-10
-1.49958e-09
-5.91757e-10
-1.09806e-09
-5.36293e-10
-7.38658e-10
-4.79146e-10
-4.22386e-10
-4.20554e-10
-1.50048e-10
-3.60807e-10
7.78239e-11
-3.00266e-10
2.6103e-10
-2.39371e-10
3.99793e-10
-1.78677e-10
4.94865e-10
-1.18886e-10
5.47654e-10
-6.08894e-11
5.60402e-10
-5.83143e-12
5.36427e-10
4.48096e-11
4.80418e-10
8.91043e-11
3.9881e-10
1.24527e-10
3.0023e-10
1.47802e-10
1.95958e-10
1.54795e-10
1.00157e-10
1.40557e-10
2.92939e-11
1.00177e-10
3.45779e-11
4.48365e-11
-8.11718e-11
1.39137e-10
-1.95658e-10
2.56385e-10
-2.56417e-10
3.7495e-10
-2.68545e-10
4.76569e-10
-2.40899e-10
5.46377e-10
-1.82168e-10
5.72665e-10
-9.98525e-11
5.46465e-10
-8.59018e-14
4.61141e-10
1.12234e-10
3.1196e-10
2.33266e-10
9.57302e-11
3.59975e-10
-1.89499e-10
4.8998e-10
-5.44679e-10
6.21403e-10
-9.69957e-10
7.52758e-10
-1.46482e-09
8.82866e-10
-2.02824e-09
1.01078e-09
-2.65875e-09
1.13575e-09
-3.35456e-09
1.25716e-09
-4.11358e-09
1.37453e-09
-4.93351e-09
1.48747e-09
-5.81187e-09
1.59567e-09
-6.74604e-09
1.6989e-09
-7.73326e-09
1.79697e-09
-8.77071e-09
1.88972e-09
-9.85549e-09
1.97705e-09
-1.09847e-08
2.05889e-09
-1.21553e-08
2.13518e-09
-1.33643e-08
2.2059e-09
-1.46087e-08
2.27105e-09
-1.58855e-08
2.33062e-09
-1.71917e-08
2.38465e-09
-1.85243e-08
2.43317e-09
-1.98803e-08
2.47622e-09
-2.12569e-08
2.51386e-09
-2.2651e-08
2.54615e-09
-2.40599e-08
2.57316e-09
-2.54806e-08
2.59497e-09
-2.69105e-08
2.61165e-09
-2.83467e-08
2.62329e-09
-2.97866e-08
2.62998e-09
-3.12274e-08
2.63181e-09
-3.26667e-08
2.62888e-09
-3.41018e-08
2.62128e-09
-3.55302e-08
2.60912e-09
-3.69496e-08
2.5925e-09
-3.83575e-08
2.57151e-09
-3.97515e-08
2.54627e-09
-4.11296e-08
2.51688e-09
-4.24893e-08
2.48345e-09
-4.38285e-08
2.44609e-09
-4.51453e-08
2.40491e-09
-4.64375e-08
2.36001e-09
-4.77031e-08
2.31152e-09
-4.89403e-08
2.25953e-09
-5.01472e-08
2.20417e-09
-5.13219e-08
2.14555e-09
-5.24629e-08
2.08377e-09
-5.35684e-08
2.01896e-09
-5.46368e-08
1.95123e-09
-5.56665e-08
1.8807e-09
-5.66562e-08
1.80747e-09
-5.76043e-08
1.73166e-09
-5.85096e-08
1.6534e-09
-5.93708e-08
1.5728e-09
-6.01865e-08
1.48997e-09
-6.09558e-08
1.40504e-09
-6.16774e-08
1.31812e-09
-6.23504e-08
1.22934e-09
-6.29738e-08
1.13881e-09
-6.35468e-08
1.04666e-09
-6.40684e-08
9.53008e-10
-6.4538e-08
8.57978e-10
-6.49549e-08
7.61695e-10
-6.53184e-08
6.64284e-10
-6.5628e-08
5.65871e-10
-6.58832e-08
4.66584e-10
-6.60836e-08
3.66549e-10
-6.62289e-08
2.65899e-10
-6.63188e-08
1.64762e-10
-6.63531e-08
6.32701e-11
-6.63317e-08
-3.84431e-11
-6.62546e-08
-1.40244e-10
-6.61217e-08
-2.41997e-10
-6.59333e-08
-3.43567e-10
-6.56893e-08
-4.44815e-10
-6.53903e-08
-5.45603e-10
-6.50363e-08
-6.45792e-10
-6.46279e-08
-7.45241e-10
-6.41656e-08
-8.43808e-10
-6.36498e-08
-9.41351e-10
-6.30814e-08
-1.03773e-09
-6.24608e-08
-1.13279e-09
-6.17891e-08
-1.2264e-09
-6.1067e-08
-1.3184e-09
-6.02955e-08
-1.40866e-09
-5.94757e-08
-1.49702e-09
-5.86087e-08
-1.58334e-09
-5.76956e-08
-1.66748e-09
-5.67378e-08
-1.74927e-09
-5.57366e-08
-1.82859e-09
-5.46934e-08
-1.90528e-09
-5.36098e-08
-1.9792e-09
-5.24875e-08
-2.0502e-09
-5.13279e-08
-2.11814e-09
-5.0133e-08
-2.18287e-09
-4.89045e-08
-2.24425e-09
-4.76444e-08
-2.30214e-09
-4.63546e-08
-2.35641e-09
-4.50372e-08
-2.40692e-09
-4.36944e-08
-2.45352e-09
-4.23283e-08
-2.4961e-09
-4.09412e-08
-2.53451e-09
-3.95354e-08
-2.56864e-09
-3.81135e-08
-2.59836e-09
-3.66777e-08
-2.62355e-09
-3.52308e-08
-2.6441e-09
-3.37752e-08
-2.65988e-09
-3.23136e-08
-2.67081e-09
-3.08488e-08
-2.67676e-09
-2.93835e-08
-2.67765e-09
-2.79204e-08
-2.67339e-09
-2.64626e-08
-2.66388e-09
-2.50128e-08
-2.64906e-09
-2.3574e-08
-2.62884e-09
-2.21492e-08
-2.60316e-09
-2.07414e-08
-2.57197e-09
-1.93535e-08
-2.53522e-09
-1.79887e-08
-2.49287e-09
-1.66499e-08
-2.44489e-09
-1.53403e-08
-2.39127e-09
-1.40629e-08
-2.33199e-09
-1.28208e-08
-2.26708e-09
-1.16169e-08
-2.19654e-09
-1.04543e-08
-2.12043e-09
-9.33593e-09
-2.03881e-09
-8.26476e-09
-1.95175e-09
-7.24361e-09
-1.85937e-09
-6.27526e-09
-1.76179e-09
-5.36238e-09
-1.65918e-09
-4.50753e-09
-1.55176e-09
-3.71311e-09
-1.43977e-09
-2.98136e-09
-1.32351e-09
-2.3143e-09
-1.20336e-09
-1.71368e-09
-1.07977e-09
-1.18097e-09
-9.53272e-10
-7.17233e-10
-8.24541e-10
-3.23108e-10
-6.94388e-10
1.32836e-12
-5.63805e-10
2.56666e-10
-4.34019e-10
4.44319e-10
-3.06546e-10
5.66714e-10
-1.83289e-10
6.27514e-10
-6.66316e-11
6.31905e-10
4.04224e-11
5.86937e-10
1.34081e-10
5.01893e-10
2.09574e-10
3.88685e-10
2.6099e-10
2.6222e-10
2.81226e-10
1.40555e-10
2.6221e-10
4.47201e-11
1.96044e-10
7.92997e-11
4.96894e-11
-1.30873e-10
1.5028e-10
-2.96232e-10
2.69151e-10
-3.75263e-10
3.81099e-10
-3.80486e-10
4.6532e-10
-3.25134e-10
5.04763e-10
-2.21623e-10
4.85712e-10
-8.07984e-11
3.97389e-10
8.82487e-11
2.31555e-10
2.78075e-10
-1.78434e-11
4.82662e-10
-3.55033e-10
6.97161e-10
-7.8272e-10
9.17667e-10
-1.30236e-09
1.14104e-09
-1.91436e-09
1.36476e-09
-2.61828e-09
1.58679e-09
-3.41296e-09
1.80546e-09
-4.29667e-09
2.01946e-09
-5.2672e-09
2.22769e-09
-6.32195e-09
2.42927e-09
-7.45798e-09
2.6235e-09
-8.67212e-09
2.80981e-09
-9.96096e-09
2.98774e-09
-1.13209e-08
3.15694e-09
-1.27483e-08
3.31711e-09
-1.42393e-08
3.46805e-09
-1.579e-08
3.6096e-09
-1.73965e-08
3.74166e-09
-1.90548e-08
3.86415e-09
-2.07608e-08
3.97705e-09
-2.25105e-08
4.08035e-09
-2.42999e-08
4.17408e-09
-2.6125e-08
4.25828e-09
-2.79819e-08
4.33303e-09
-2.98664e-08
4.39839e-09
-3.17747e-08
4.45449e-09
-3.3703e-08
4.50141e-09
-3.56473e-08
4.5393e-09
-3.76039e-08
4.56827e-09
-3.95691e-08
4.58847e-09
-4.15392e-08
4.60006e-09
-4.35105e-08
4.60317e-09
-4.54797e-08
4.59799e-09
-4.7443e-08
4.58466e-09
-4.93973e-08
4.56337e-09
-5.13391e-08
4.53429e-09
-5.32651e-08
4.49759e-09
-5.51723e-08
4.45345e-09
-5.70575e-08
4.40207e-09
-5.89177e-08
4.34363e-09
-6.07499e-08
4.2783e-09
-6.25513e-08
4.20629e-09
-6.43191e-08
4.12779e-09
-6.60506e-08
4.04299e-09
-6.77431e-08
3.95208e-09
-6.93942e-08
3.85526e-09
-7.10014e-08
3.75272e-09
-7.25623e-08
3.64467e-09
-7.40746e-08
3.53131e-09
-7.55362e-08
3.41282e-09
-7.69449e-08
3.28942e-09
-7.82988e-08
3.16131e-09
-7.95958e-08
3.02869e-09
-8.08341e-08
2.89176e-09
-8.20121e-08
2.75073e-09
-8.31279e-08
2.60581e-09
-8.41801e-08
2.4572e-09
-8.51671e-08
2.30512e-09
-8.60875e-08
2.14977e-09
-8.69401e-08
1.99137e-09
-8.77235e-08
1.83012e-09
-8.84368e-08
1.66625e-09
-8.90788e-08
1.49997e-09
-8.96486e-08
1.3315e-09
-9.01453e-08
1.16106e-09
-9.05683e-08
9.88867e-10
-9.09169e-08
8.15149e-10
-9.11905e-08
6.4013e-10
-9.13886e-08
4.64037e-10
-9.1511e-08
2.871e-10
-9.15572e-08
1.09549e-10
-9.15273e-08
-6.83822e-11
-9.14211e-08
-2.46459e-10
-9.12386e-08
-4.24444e-10
-9.09801e-08
-6.02098e-10
-9.06457e-08
-7.79181e-10
-9.02359e-08
-9.5545e-10
-8.9751e-08
-1.13066e-09
-8.91917e-08
-1.30457e-09
-8.85586e-08
-1.47692e-09
-8.78525e-08
-1.64747e-09
-8.70742e-08
-1.81597e-09
-8.62249e-08
-1.98216e-09
-8.53055e-08
-2.14579e-09
-8.43173e-08
-2.30662e-09
-8.32615e-08
-2.46437e-09
-8.21398e-08
-2.6188e-09
-8.09535e-08
-2.76965e-09
-7.97043e-08
-2.91667e-09
-7.83939e-08
-3.0596e-09
-7.70244e-08
-3.19818e-09
-7.55975e-08
-3.33215e-09
-7.41154e-08
-3.46128e-09
-7.25803e-08
-3.58529e-09
-7.09945e-08
-3.70395e-09
-6.93604e-08
-3.817e-09
-6.76804e-08
-3.92419e-09
-6.59573e-08
-4.02529e-09
-6.41937e-08
-4.12004e-09
-6.23924e-08
-4.20822e-09
-6.05563e-08
-4.28959e-09
-5.86885e-08
-4.36392e-09
-5.6792e-08
-4.43099e-09
-5.48701e-08
-4.49058e-09
-5.29259e-08
-4.54247e-09
-5.0963e-08
-4.58647e-09
-4.89848e-08
-4.62236e-09
-4.69947e-08
-4.64996e-09
-4.49964e-08
-4.66909e-09
-4.29936e-08
-4.67957e-09
-4.099e-08
-4.68123e-09
-3.89895e-08
-4.67392e-09
-3.69959e-08
-4.6575e-09
-3.50131e-08
-4.63183e-09
-3.30452e-08
-4.59679e-09
-3.10961e-08
-4.55228e-09
-2.91698e-08
-4.4982e-09
-2.72706e-08
-4.43448e-09
-2.54024e-08
-4.36106e-09
-2.35694e-08
-4.2779e-09
-2.17757e-08
-4.18498e-09
-2.00254e-08
-4.08231e-09
-1.83225e-08
-3.9699e-09
-1.66712e-08
-3.84783e-09
-1.50755e-08
-3.71617e-09
-1.35393e-08
-3.57505e-09
-1.20664e-08
-3.42462e-09
-1.06607e-08
-3.26509e-09
-9.32576e-09
-3.09672e-09
-8.06512e-09
-2.91982e-09
-6.88211e-09
-2.73477e-09
-5.77983e-09
-2.54205e-09
-4.76114e-09
-2.3422e-09
-3.8286e-09
-2.13591e-09
-2.98438e-09
-1.92398e-09
-2.23026e-09
-1.70739e-09
-1.56748e-09
-1.48732e-09
-9.96676e-10
-1.2652e-09
-5.17735e-10
-1.04274e-09
-1.29683e-10
-8.22068e-10
1.69514e-10
-6.05747e-10
3.83158e-10
-3.96939e-10
5.16057e-10
-1.99536e-10
5.74814e-10
-1.83382e-11
5.68151e-10
1.40747e-10
5.07253e-10
2.70488e-10
4.06099e-10
3.62155e-10
2.81824e-10
4.05486e-10
1.55066e-10
3.88938e-10
5.05577e-11
3.00553e-10
1.29866e-10
4.74886e-11
-1.78373e-10
1.40203e-10
-3.88954e-10
2.42686e-10
-4.77731e-10
3.27545e-10
-4.65324e-10
3.72405e-10
-3.69988e-10
3.58908e-10
-2.08135e-10
2.72152e-10
5.94934e-12
1.00238e-10
2.60165e-10
-1.66105e-10
5.44426e-10
-5.3385e-10
8.50412e-10
-1.00799e-09
1.1713e-09
-1.59182e-09
1.50149e-09
-2.2872e-09
1.83643e-09
-3.0948e-09
2.17236e-09
-4.01425e-09
2.50624e-09
-5.04434e-09
2.83556e-09
-6.18315e-09
3.15826e-09
-7.42814e-09
3.47268e-09
-8.77629e-09
3.77742e-09
-1.02242e-08
4.07138e-09
-1.1768e-08
4.35364e-09
-1.34037e-08
4.62346e-09
-1.5127e-08
4.88025e-09
-1.69335e-08
5.12355e-09
-1.88184e-08
5.353e-09
-2.07771e-08
5.56832e-09
-2.28048e-08
5.76931e-09
-2.48965e-08
5.95586e-09
-2.70473e-08
6.12788e-09
-2.92523e-08
6.28534e-09
-3.15065e-08
6.42827e-09
-3.38049e-08
6.55672e-09
-3.61427e-08
6.67077e-09
-3.85148e-08
6.77053e-09
-4.09165e-08
6.85613e-09
-4.33428e-08
6.92775e-09
-4.5789e-08
6.98554e-09
-4.82505e-08
7.02971e-09
-5.07225e-08
7.06046e-09
-5.32004e-08
7.07801e-09
-5.56798e-08
7.08259e-09
-5.81563e-08
7.07444e-09
-6.06254e-08
7.0538e-09
-6.3083e-08
7.02095e-09
-6.55248e-08
6.97613e-09
-6.79469e-08
6.91961e-09
-7.03451e-08
6.85168e-09
-7.27156e-08
6.7726e-09
-7.50546e-08
6.68266e-09
-7.73585e-08
6.58215e-09
-7.96236e-08
6.47136e-09
-8.18464e-08
6.35058e-09
-8.40235e-08
6.22011e-09
-8.61516e-08
6.08023e-09
-8.82276e-08
5.93126e-09
-9.02484e-08
5.77349e-09
-9.2211e-08
5.60724e-09
-9.41124e-08
5.43279e-09
-9.59501e-08
5.25047e-09
-9.77212e-08
5.06057e-09
-9.94234e-08
4.86342e-09
-1.01054e-07
4.65933e-09
-1.02611e-07
4.4486e-09
-1.04092e-07
4.23156e-09
-1.05494e-07
4.00853e-09
-1.06817e-07
3.77982e-09
-1.08058e-07
3.54576e-09
-1.09215e-07
3.30667e-09
-1.10286e-07
3.06288e-09
-1.11271e-07
2.81472e-09
-1.12167e-07
2.56252e-09
-1.12974e-07
2.30662e-09
-1.13689e-07
2.04734e-09
-1.14313e-07
1.78504e-09
-1.14845e-07
1.52005e-09
-1.15282e-07
1.25272e-09
-1.15625e-07
9.83393e-10
-1.15874e-07
7.12422e-10
-1.16027e-07
4.4016e-10
-1.16084e-07
1.66963e-10
-1.16046e-07
-1.06808e-10
-1.15911e-07
-3.80792e-10
-1.15681e-07
-6.54623e-10
-1.15355e-07
-9.27933e-10
-1.14934e-07
-1.20035e-09
-1.14418e-07
-1.4715e-09
-1.13808e-07
-1.74101e-09
-1.13104e-07
-2.0085e-09
-1.12307e-07
-2.27359e-09
-1.11419e-07
-2.53588e-09
-1.1044e-07
-2.79501e-09
-1.09371e-07
-3.05057e-09
-1.08215e-07
-3.30219e-09
-1.06972e-07
-3.54947e-09
-1.05645e-07
-3.79201e-09
-1.04234e-07
-4.02943e-09
-1.02742e-07
-4.26133e-09
-1.01172e-07
-4.48732e-09
-9.95242e-08
-4.70701e-09
-9.78023e-08
-4.92001e-09
-9.60086e-08
-5.12592e-09
-9.41455e-08
-5.32435e-09
-9.22159e-08
-5.51493e-09
-9.02226e-08
-5.69726e-09
-8.81686e-08
-5.87096e-09
-8.60571e-08
-6.03567e-09
-8.38914e-08
-6.19099e-09
-8.16749e-08
-6.33658e-09
-7.94111e-08
-6.47206e-09
-7.71036e-08
-6.59707e-09
-7.47562e-08
-6.71128e-09
-7.23729e-08
-6.81434e-09
-6.99575e-08
-6.90592e-09
-6.75143e-08
-6.98569e-09
-6.50475e-08
-7.05334e-09
-6.25612e-08
-7.10857e-09
-6.00601e-08
-7.1511e-09
-5.75486e-08
-7.18064e-09
-5.50312e-08
-7.19693e-09
-5.25127e-08
-7.19972e-09
-4.99978e-08
-7.18879e-09
-4.74914e-08
-7.16391e-09
-4.49984e-08
-7.1249e-09
-4.25236e-08
-7.07157e-09
-4.00721e-08
-7.00377e-09
-3.76489e-08
-6.92138e-09
-3.52591e-08
-6.82428e-09
-3.29078e-08
-6.7124e-09
-3.06e-08
-6.5857e-09
-2.83408e-08
-6.44415e-09
-2.61353e-08
-6.28777e-09
-2.39886e-08
-6.11664e-09
-2.19056e-08
-5.93084e-09
-1.98912e-08
-5.73055e-09
-1.79503e-08
-5.51595e-09
-1.60876e-08
-5.28732e-09
-1.43077e-08
-5.04501e-09
-1.2615e-08
-4.78943e-09
-1.10137e-08
-4.5211e-09
-9.50784e-09
-4.24063e-09
-8.10112e-09
-3.94877e-09
-6.79691e-09
-3.64641e-09
-5.59821e-09
-3.33461e-09
-4.50754e-09
-3.01465e-09
-3.52689e-09
-2.68804e-09
-2.65762e-09
-2.3566e-09
-1.90031e-09
-2.02251e-09
-1.25469e-09
-1.68837e-09
-7.19417e-10
-1.35733e-09
-2.91957e-10
-1.0332e-09
3.16747e-11
-7.20572e-10
2.57139e-10
-4.25004e-10
3.92031e-10
-1.53239e-10
4.46186e-10
8.65837e-11
4.31986e-10
2.8469e-10
3.64691e-10
4.29466e-10
2.62818e-10
5.07368e-10
1.48687e-10
5.03053e-10
4.94302e-11
3.99798e-10
1.79299e-10
4.0398e-11
-2.18765e-10
1.14196e-10
-4.62769e-10
1.85668e-10
-5.4921e-10
2.26662e-10
-5.06307e-10
2.14129e-10
-3.57439e-10
1.29101e-10
-1.23104e-10
-4.39239e-11
1.78968e-10
-3.17442e-10
5.33678e-10
-7.01312e-10
9.28298e-10
-1.20306e-09
1.35217e-09
-1.82818e-09
1.79642e-09
-2.58038e-09
2.25368e-09
-3.4618e-09
2.71785e-09
-4.47329e-09
3.18385e-09
-5.61455e-09
3.6475e-09
-6.88432e-09
4.10533e-09
-8.28051e-09
4.55446e-09
-9.80035e-09
4.99251e-09
-1.14405e-08
5.41753e-09
-1.3197e-08
5.82789e-09
-1.50656e-08
6.22227e-09
-1.70417e-08
6.59959e-09
-1.91204e-08
6.95896e-09
-2.12966e-08
7.2997e-09
-2.35648e-08
7.62124e-09
-2.59196e-08
7.92316e-09
-2.83555e-08
8.20516e-09
-3.08666e-08
8.467e-09
-3.34473e-08
8.70856e-09
-3.60917e-08
8.92977e-09
-3.87941e-08
9.13062e-09
-4.15485e-08
9.31115e-09
-4.43492e-08
9.47148e-09
-4.71904e-08
9.61173e-09
-5.00664e-08
9.73207e-09
-5.29713e-08
9.83271e-09
-5.58997e-08
9.91389e-09
-5.88458e-08
9.97585e-09
-6.18042e-08
1.00189e-08
-6.47695e-08
1.00433e-08
-6.77363e-08
1.00494e-08
-7.06993e-08
1.00374e-08
-7.36534e-08
1.00079e-08
-7.65935e-08
9.96104e-09
-7.95146e-08
9.89726e-09
-8.24119e-08
9.81693e-09
-8.52807e-08
9.72042e-09
-8.81162e-08
9.60814e-09
-9.0914e-08
9.48046e-09
-9.36697e-08
9.33781e-09
-9.63789e-08
9.18057e-09
-9.90374e-08
9.00917e-09
-1.01641e-07
8.82402e-09
-1.04187e-07
8.62554e-09
-1.0667e-07
8.41415e-09
-1.09086e-07
8.19028e-09
-1.11433e-07
7.95437e-09
-1.13708e-07
7.70683e-09
-1.15905e-07
7.44811e-09
-1.18023e-07
7.17865e-09
-1.20059e-07
6.89889e-09
-1.22009e-07
6.60927e-09
-1.2387e-07
6.31024e-09
-1.25641e-07
6.00225e-09
-1.27318e-07
5.68575e-09
-1.289e-07
5.3612e-09
-1.30383e-07
5.02905e-09
-1.31766e-07
4.68977e-09
-1.33047e-07
4.34382e-09
-1.34224e-07
3.99167e-09
-1.35295e-07
3.63379e-09
-1.36259e-07
3.27066e-09
-1.37115e-07
2.90275e-09
-1.3786e-07
2.53056e-09
-1.38495e-07
2.15456e-09
-1.39017e-07
1.77524e-09
-1.39427e-07
1.3931e-09
-1.39723e-07
1.00864e-09
-1.39905e-07
6.22366e-10
-1.39973e-07
2.34775e-10
-1.39926e-07
-1.53617e-10
-1.39765e-07
-5.42297e-10
-1.39489e-07
-9.30745e-10
-1.39098e-07
-1.31844e-09
-1.38594e-07
-1.70485e-09
-1.37976e-07
-2.08944e-09
-1.37245e-07
-2.47169e-09
-1.36402e-07
-2.85106e-09
-1.35449e-07
-3.22699e-09
-1.34386e-07
-3.59896e-09
-1.33215e-07
-3.96641e-09
-1.31936e-07
-4.32879e-09
-1.30553e-07
-4.68555e-09
-1.29066e-07
-5.03614e-09
-1.27478e-07
-5.38001e-09
-1.25791e-07
-5.71659e-09
-1.24007e-07
-6.04533e-09
-1.22129e-07
-6.36567e-09
-1.20159e-07
-6.67707e-09
-1.181e-07
-6.97897e-09
-1.15955e-07
-7.2708e-09
-1.13727e-07
-7.55204e-09
-1.1142e-07
-7.82212e-09
-1.09037e-07
-8.08051e-09
-1.06581e-07
-8.32667e-09
-1.04057e-07
-8.56007e-09
-1.01468e-07
-8.78019e-09
-9.88176e-08
-8.9865e-09
-9.61112e-08
-9.17849e-09
-9.33526e-08
-9.35568e-09
-9.05463e-08
-9.51756e-09
-8.7697e-08
-9.66366e-09
-8.48094e-08
-9.79351e-09
-8.18884e-08
-9.90667e-09
-7.89391e-08
-1.00027e-08
-7.59665e-08
-1.00812e-08
-7.29759e-08
-1.01417e-08
-6.99727e-08
-1.01838e-08
-6.69624e-08
-1.02073e-08
-6.39504e-08
-1.02117e-08
-6.09425e-08
-1.01967e-08
-5.79444e-08
-1.01621e-08
-5.49617e-08
-1.01075e-08
-5.20005e-08
-1.00328e-08
-4.90666e-08
-9.93769e-09
-4.61659e-08
-9.82205e-09
-4.33045e-08
-9.68574e-09
-4.04882e-08
-9.52865e-09
-3.77232e-08
-9.35074e-09
-3.50153e-08
-9.15202e-09
-3.23706e-08
-8.93252e-09
-2.97949e-08
-8.69235e-09
-2.7294e-08
-8.43169e-09
-2.48738e-08
-8.15079e-09
-2.25398e-08
-7.84995e-09
-2.02975e-08
-7.5296e-09
-1.81523e-08
-7.19025e-09
-1.61092e-08
-6.83251e-09
-1.41731e-08
-6.45717e-09
-1.23486e-08
-6.06511e-09
-1.064e-08
-5.65743e-09
-9.05095e-09
-5.23544e-09
-7.58492e-09
-4.80064e-09
-6.24469e-09
-4.35487e-09
-5.03244e-09
-3.90029e-09
-3.9496e-09
-3.43945e-09
-2.99674e-09
-2.97538e-09
-2.17342e-09
-2.51169e-09
-1.47806e-09
-2.0527e-09
-9.07731e-10
-1.60353e-09
-4.57972e-10
-1.17033e-09
-1.22555e-10
-7.6042e-10
1.06752e-10
-3.82546e-10
2.40448e-10
-4.71201e-11
2.91595e-10
2.33533e-10
2.76145e-10
4.44918e-10
2.13356e-10
5.70169e-10
1.26394e-10
5.90017e-10
4.34025e-11
4.82782e-10
2.227e-10
2.99464e-11
-2.48696e-10
7.65393e-11
-5.09364e-10
1.05505e-10
-5.78189e-10
8.91289e-11
-4.89936e-10
4.50432e-12
-2.72807e-10
-1.67345e-10
4.87561e-11
-4.42033e-10
4.53659e-10
-8.32239e-10
9.23881e-10
-1.34805e-09
1.44411e-09
-1.99724e-09
2.00137e-09
-2.78555e-09
2.58473e-09
-3.71689e-09
3.18503e-09
-4.79359e-09
3.79455e-09
-6.01657e-09
4.40683e-09
-7.38554e-09
5.01648e-09
-8.89919e-09
5.61898e-09
-1.05553e-08
6.21054e-09
-1.23508e-08
6.78801e-09
-1.4282e-08
7.34877e-09
-1.63447e-08
7.89064e-09
-1.85343e-08
8.4118e-09
-2.08455e-08
8.91077e-09
-2.32728e-08
9.38634e-09
-2.58107e-08
9.83752e-09
-2.84529e-08
1.02635e-08
-3.11936e-08
1.06638e-08
-3.40261e-08
1.10378e-08
-3.69443e-08
1.13852e-08
-3.99415e-08
1.17058e-08
-4.30112e-08
1.19995e-08
-4.61468e-08
1.22662e-08
-4.93416e-08
1.2506e-08
-5.2589e-08
1.27189e-08
-5.58825e-08
1.29052e-08
-5.92154e-08
1.3065e-08
-6.25812e-08
1.31986e-08
-6.59736e-08
1.33062e-08
-6.9386e-08
1.33883e-08
-7.28122e-08
1.34451e-08
-7.62458e-08
1.3477e-08
-7.96809e-08
1.34844e-08
-8.31113e-08
1.34679e-08
-8.65311e-08
1.34277e-08
-8.99345e-08
1.33644e-08
-9.33157e-08
1.32785e-08
-9.66692e-08
1.31704e-08
-9.99895e-08
1.30407e-08
-1.03271e-07
1.28898e-08
-1.06509e-07
1.27183e-08
-1.09698e-07
1.25268e-08
-1.12833e-07
1.23157e-08
-1.1591e-07
1.20857e-08
-1.18923e-07
1.18372e-08
-1.21868e-07
1.15708e-08
-1.24741e-07
1.12871e-08
-1.27537e-07
1.09867e-08
-1.30253e-07
1.06701e-08
-1.32884e-07
1.03379e-08
-1.35427e-07
9.99076e-09
-1.37877e-07
9.62918e-09
-1.40232e-07
9.25377e-09
-1.42488e-07
8.86514e-09
-1.44642e-07
8.46388e-09
-1.4669e-07
8.0506e-09
-1.4863e-07
7.6259e-09
-1.5046e-07
7.1904e-09
-1.52175e-07
6.74471e-09
-1.53775e-07
6.28946e-09
-1.55256e-07
5.82526e-09
-1.56617e-07
5.35275e-09
-1.57856e-07
4.87256e-09
-1.58971e-07
4.38532e-09
-1.5996e-07
3.8917e-09
-1.60822e-07
3.39232e-09
-1.61555e-07
2.88785e-09
-1.62159e-07
2.37894e-09
-1.62632e-07
1.86626e-09
-1.62974e-07
1.35049e-09
-1.63183e-07
8.32283e-10
-1.63261e-07
3.12336e-10
-1.63206e-07
-2.08669e-10
-1.63018e-07
-7.30041e-10
-1.62698e-07
-1.25108e-09
-1.62245e-07
-1.77109e-09
-1.61661e-07
-2.28936e-09
-1.60945e-07
-2.80517e-09
-1.60099e-07
-3.31782e-09
-1.59123e-07
-3.82657e-09
-1.5802e-07
-4.33071e-09
-1.56789e-07
-4.8295e-09
-1.55433e-07
-5.32221e-09
-1.53954e-07
-5.8081e-09
-1.52353e-07
-6.28644e-09
-1.50633e-07
-6.75648e-09
-1.48795e-07
-7.21749e-09
-1.46843e-07
-7.6687e-09
-1.44779e-07
-8.1094e-09
-1.42606e-07
-8.53882e-09
-1.40327e-07
-8.95623e-09
-1.37945e-07
-9.36089e-09
-1.35464e-07
-9.75206e-09
-1.32887e-07
-1.0129e-08
-1.30218e-07
-1.0491e-08
-1.27461e-07
-1.08373e-08
-1.2462e-07
-1.11672e-08
-1.217e-07
-1.14801e-08
-1.18705e-07
-1.17751e-08
-1.1564e-07
-1.20516e-08
-1.1251e-07
-1.2309e-08
-1.09319e-07
-1.25466e-08
-1.06073e-07
-1.27636e-08
-1.02777e-07
-1.29596e-08
-9.94367e-08
-1.31338e-08
-9.60577e-08
-1.32857e-08
-9.26457e-08
-1.34147e-08
-8.92067e-08
-1.35202e-08
-8.57466e-08
-1.36017e-08
-8.22717e-08
-1.36587e-08
-7.87882e-08
-1.36908e-08
-7.53025e-08
-1.36974e-08
-7.1821e-08
-1.36782e-08
-6.83503e-08
-1.36327e-08
-6.48971e-08
-1.35607e-08
-6.1468e-08
-1.34619e-08
-5.80699e-08
-1.33359e-08
-5.47093e-08
-1.31826e-08
-5.13933e-08
-1.30017e-08
-4.81287e-08
-1.27933e-08
-4.49221e-08
-1.25573e-08
-4.17806e-08
-1.22936e-08
-3.87107e-08
-1.20024e-08
-3.57193e-08
-1.16838e-08
-3.28129e-08
-1.13381e-08
-2.9998e-08
-1.09657e-08
-2.7281e-08
-1.0567e-08
-2.4668e-08
-1.01426e-08
-2.21651e-08
-9.69319e-09
-1.97779e-08
-9.21972e-09
-1.75119e-08
-8.72319e-09
-1.53721e-08
-8.20488e-09
-1.33633e-08
-7.66627e-09
-1.14896e-08
-7.10911e-09
-9.75474e-09
-6.53548e-09
-8.1618e-09
-5.94782e-09
-6.71309e-09
-5.349e-09
-5.41012e-09
-4.74241e-09
-4.25348e-09
-4.13202e-09
-3.24264e-09
-3.52253e-09
-2.37587e-09
-2.91948e-09
-1.64999e-09
-2.32941e-09
-1.06028e-09
-1.76005e-09
-6.00179e-10
-1.22052e-09
-2.6113e-10
-7.21593e-10
-3.23213e-11
-2.75929e-10
9.95764e-11
1.01629e-10
1.50732e-10
3.93755e-10
1.40567e-10
5.80336e-10
9.23214e-11
6.38267e-10
3.39647e-11
5.41138e-10
2.56662e-10
1.72298e-11
-2.65918e-10
3.05448e-11
-5.22666e-10
8.18305e-12
-5.55829e-10
-7.62262e-11
-4.05537e-10
-2.44775e-10
-1.04261e-10
-5.15924e-10
3.1991e-10
-9.04974e-10
8.42716e-10
-1.42443e-09
1.44334e-09
-2.08431e-09
2.10398e-09
-2.89238e-09
2.80943e-09
-3.8544e-09
3.54675e-09
-4.9743e-09
4.30494e-09
-6.25445e-09
5.07469e-09
-7.69575e-09
5.84814e-09
-9.29787e-09
6.6186e-09
-1.10594e-08
7.38048e-09
-1.29779e-08
8.12902e-09
-1.50501e-08
8.86024e-09
-1.72721e-08
9.57078e-09
-1.96393e-08
1.02578e-08
-2.21466e-08
1.09191e-08
-2.47884e-08
1.15526e-08
-2.75588e-08
1.21567e-08
-3.04514e-08
1.27301e-08
-3.34597e-08
1.32719e-08
-3.6577e-08
1.3781e-08
-3.97963e-08
1.4257e-08
-4.31104e-08
1.46993e-08
-4.65123e-08
1.51076e-08
-4.99946e-08
1.54817e-08
-5.355e-08
1.58216e-08
-5.71711e-08
1.61271e-08
-6.08506e-08
1.63984e-08
-6.45811e-08
1.66357e-08
-6.83553e-08
1.68392e-08
-7.21659e-08
1.70092e-08
-7.60057e-08
1.7146e-08
-7.98675e-08
1.72501e-08
-8.37443e-08
1.73218e-08
-8.7629e-08
1.73617e-08
-9.15149e-08
1.73703e-08
-9.53951e-08
1.7348e-08
-9.92629e-08
1.72955e-08
-1.03112e-07
1.72133e-08
-1.06935e-07
1.71021e-08
-1.10727e-07
1.69623e-08
-1.14481e-07
1.67948e-08
-1.18192e-07
1.66001e-08