/*--------------------------------*- C++ -*----------------------------------*\
  =========                 |
  \\      /  F ield         | OpenFOAM: The Open Source CFD Toolbox
   \\    /   O peration     | Website:  https://openfoam.org
    \\  /    A nd           | Version:  7
     \\/     M anipulation  |
\*---------------------------------------------------------------------------*/
FoamFile
{
    version     2.0;
    format      ascii;
    class       volVectorField;
    location    "0.375";
    object      U;
}
// * * * * * * * * * * * * * * * * * * * * * * * * * * * * * * * * * * * * * //

dimensions      [0 1 -1 0 0 0 0];

internalField   nonuniform List<vector> 
25600
(
(1.77988e-07 -2.06718e-07 0)
(2.83622e-06 -1.79515e-06 0)
(9.07416e-06 -2.83302e-06 0)
(1.69262e-05 -3.20611e-06 0)
(2.4886e-05 -3.12287e-06 0)
(3.20036e-05 -2.74578e-06 0)
(3.76252e-05 -2.18149e-06 0)
(4.13011e-05 -1.50088e-06 0)
(4.27332e-05 -7.50705e-07 0)
(4.17288e-05 3.8255e-08 0)
(3.81697e-05 8.45509e-07 0)
(3.1993e-05 1.65715e-06 0)
(2.3177e-05 2.46332e-06 0)
(1.17315e-05 3.25672e-06 0)
(-2.31014e-06 4.03187e-06 0)
(-1.88968e-05 4.78474e-06 0)
(-3.79633e-05 5.51241e-06 0)
(-5.94337e-05 6.21274e-06 0)
(-8.32231e-05 6.88413e-06 0)
(-0.00010924 7.52533e-06 0)
(-0.000137388 8.13546e-06 0)
(-0.000167567 8.7139e-06 0)
(-0.000199673 9.26029e-06 0)
(-0.000233602 9.77441e-06 0)
(-0.000269246 1.02562e-05 0)
(-0.000306498 1.07058e-05 0)
(-0.00034525 1.11231e-05 0)
(-0.000385394 1.15086e-05 0)
(-0.000426821 1.18624e-05 0)
(-0.000469425 1.21849e-05 0)
(-0.000513098 1.24765e-05 0)
(-0.000557736 1.27375e-05 0)
(-0.000603234 1.29684e-05 0)
(-0.000649488 1.31698e-05 0)
(-0.000696397 1.33421e-05 0)
(-0.000743861 1.34857e-05 0)
(-0.00079178 1.36013e-05 0)
(-0.000840058 1.36894e-05 0)
(-0.0008886 1.37506e-05 0)
(-0.000937311 1.37853e-05 0)
(-0.000986101 1.37943e-05 0)
(-0.00103488 1.3778e-05 0)
(-0.00108356 1.3737e-05 0)
(-0.00113205 1.3672e-05 0)
(-0.00118028 1.35835e-05 0)
(-0.00122815 1.34721e-05 0)
(-0.00127559 1.33385e-05 0)
(-0.00132253 1.31831e-05 0)
(-0.00136888 1.30067e-05 0)
(-0.00141457 1.28097e-05 0)
(-0.00145953 1.25928e-05 0)
(-0.00150369 1.23567e-05 0)
(-0.00154698 1.21018e-05 0)
(-0.00158934 1.18288e-05 0)
(-0.00163071 1.15383e-05 0)
(-0.00167102 1.12309e-05 0)
(-0.00171021 1.09071e-05 0)
(-0.00174823 1.05676e-05 0)
(-0.00178501 1.02131e-05 0)
(-0.00182052 9.84393e-06 0)
(-0.0018547 9.46088e-06 0)
(-0.00188749 9.0645e-06 0)
(-0.00191886 8.65538e-06 0)
(-0.00194876 8.23414e-06 0)
(-0.00197714 7.80138e-06 0)
(-0.00200398 7.35772e-06 0)
(-0.00202922 6.90375e-06 0)
(-0.00205283 6.44009e-06 0)
(-0.00207479 5.96735e-06 0)
(-0.00209505 5.48616e-06 0)
(-0.00211359 4.99716e-06 0)
(-0.00213039 4.50097e-06 0)
(-0.00214542 3.99821e-06 0)
(-0.00215865 3.48954e-06 0)
(-0.00217008 2.97558e-06 0)
(-0.00217967 2.457e-06 0)
(-0.00218741 1.93445e-06 0)
(-0.0021933 1.40861e-06 0)
(-0.00219732 8.8012e-07 0)
(-0.00219947 3.49667e-07 0)
(-0.00219973 -1.82067e-07 0)
(-0.00219811 -7.1439e-07 0)
(-0.0021946 -1.2466e-06 0)
(-0.00218921 -1.778e-06 0)
(-0.00218194 -2.30789e-06 0)
(-0.0021728 -2.83555e-06 0)
(-0.00216179 -3.36025e-06 0)
(-0.00214894 -3.88126e-06 0)
(-0.00213425 -4.39785e-06 0)
(-0.00211773 -4.90927e-06 0)
(-0.00209943 -5.41477e-06 0)
(-0.00207934 -5.91362e-06 0)
(-0.00205751 -6.40504e-06 0)
(-0.00203395 -6.88829e-06 0)
(-0.0020087 -7.36258e-06 0)
(-0.00198179 -7.82716e-06 0)
(-0.00195326 -8.28123e-06 0)
(-0.00192314 -8.72402e-06 0)
(-0.00189149 -9.15477e-06 0)
(-0.00185833 -9.5727e-06 0)
(-0.00182373 -9.97703e-06 0)
(-0.00178772 -1.0367e-05 0)
(-0.00175037 -1.07418e-05 0)
(-0.00171172 -1.11006e-05 0)
(-0.00167184 -1.14427e-05 0)
(-0.00163079 -1.17674e-05 0)
(-0.00158862 -1.20738e-05 0)
(-0.00154541 -1.23613e-05 0)
(-0.00150122 -1.26291e-05 0)
(-0.00145612 -1.28763e-05 0)
(-0.00141019 -1.31024e-05 0)
(-0.00136351 -1.33066e-05 0)
(-0.00131615 -1.34882e-05 0)
(-0.00126819 -1.36465e-05 0)
(-0.00121972 -1.37808e-05 0)
(-0.00117082 -1.38904e-05 0)
(-0.00112159 -1.39749e-05 0)
(-0.0010721 -1.40334e-05 0)
(-0.00102245 -1.40655e-05 0)
(-0.000972742 -1.40704e-05 0)
(-0.000923063 -1.40478e-05 0)
(-0.000873512 -1.3997e-05 0)
(-0.00082419 -1.39175e-05 0)
(-0.000775197 -1.38088e-05 0)
(-0.000726635 -1.36707e-05 0)
(-0.000678607 -1.35026e-05 0)
(-0.000631219 -1.33041e-05 0)
(-0.000584577 -1.30749e-05 0)
(-0.000538786 -1.28146e-05 0)
(-0.000493954 -1.25231e-05 0)
(-0.000450189 -1.22002e-05 0)
(-0.000407598 -1.18456e-05 0)
(-0.000366292 -1.14592e-05 0)
(-0.000326376 -1.10412e-05 0)
(-0.000287958 -1.05915e-05 0)
(-0.000251147 -1.01101e-05 0)
(-0.000216046 -9.59731e-06 0)
(-0.00018276 -9.0534e-06 0)
(-0.000151391 -8.47885e-06 0)
(-0.000122038 -7.87423e-06 0)
(-9.47972e-05 -7.24032e-06 0)
(-6.97597e-05 -6.57815e-06 0)
(-4.70122e-05 -5.88897e-06 0)
(-2.66349e-05 -5.17438e-06 0)
(-8.7e-06 -4.43649e-06 0)
(6.73033e-06 -3.67799e-06 0)
(1.96057e-05 -2.90219e-06 0)
(2.98911e-05 -2.11337e-06 0)
(3.75714e-05 -1.31735e-06 0)
(4.26561e-05 -5.22016e-07 0)
(4.51864e-05 2.62088e-07 0)
(4.52449e-05 1.02049e-06 0)
(4.29704e-05 1.73247e-06 0)
(3.85773e-05 2.36748e-06 0)
(3.23855e-05 2.87919e-06 0)
(2.48634e-05 3.19708e-06 0)
(1.66778e-05 3.21589e-06 0)
(8.78075e-06 2.77923e-06 0)
(2.64586e-06 1.69532e-06 0)
(1.23113e-07 1.2124e-07 0)
(1.77655e-06 -2.87832e-06 0)
(9.38147e-06 -9.41431e-06 0)
(2.31376e-05 -1.34182e-05 0)
(3.93762e-05 -1.47274e-05 0)
(5.5257e-05 -1.39629e-05 0)
(6.8788e-05 -1.16963e-05 0)
(7.84285e-05 -8.36712e-06 0)
(8.302e-05 -4.30335e-06 0)
(8.17306e-05 2.54244e-07 0)
(7.39834e-05 5.12989e-06 0)
(5.93955e-05 1.01944e-05 0)
(3.77338e-05 1.53524e-05 0)
(8.88225e-06 2.05318e-05 0)
(-2.7183e-05 2.56776e-05 0)
(-7.04137e-05 3.0747e-05 0)
(-0.000120705 3.57068e-05 0)
(-0.000177906 4.05311e-05 0)
(-0.000241832 4.52002e-05 0)
(-0.000312268 4.96984e-05 0)
(-0.000388977 5.40135e-05 0)
(-0.000471706 5.8136e-05 0)
(-0.000560184 6.20588e-05 0)
(-0.000654131 6.57765e-05 0)
(-0.000753261 6.92854e-05 0)
(-0.000857277 7.25828e-05 0)
(-0.000965883 7.56672e-05 0)
(-0.00107878 7.85379e-05 0)
(-0.00119565 8.11948e-05 0)
(-0.00131621 8.36388e-05 0)
(-0.00144014 8.58709e-05 0)
(-0.00156715 8.78927e-05 0)
(-0.00169693 8.97061e-05 0)
(-0.00182919 9.13135e-05 0)
(-0.00196363 9.27174e-05 0)
(-0.00209996 9.39206e-05 0)
(-0.0022379 9.49262e-05 0)
(-0.00237715 9.57373e-05 0)
(-0.00251744 9.63572e-05 0)
(-0.0026585 9.67893e-05 0)
(-0.00280005 9.70374e-05 0)
(-0.00294184 9.7105e-05 0)
(-0.00308359 9.69959e-05 0)
(-0.00322506 9.67139e-05 0)
(-0.00336599 9.6263e-05 0)
(-0.00350615 9.56469e-05 0)
(-0.0036453 9.48697e-05 0)
(-0.0037832 9.39355e-05 0)
(-0.00391962 9.28482e-05 0)
(-0.00405435 9.1612e-05 0)
(-0.00418717 9.02308e-05 0)
(-0.00431788 8.8709e-05 0)
(-0.00444626 8.70505e-05 0)
(-0.00457213 8.52595e-05 0)
(-0.00469529 8.33403e-05 0)
(-0.00481555 8.12969e-05 0)
(-0.00493275 7.91335e-05 0)
(-0.0050467 7.68544e-05 0)
(-0.00515724 7.44638e-05 0)
(-0.00526421 7.19658e-05 0)
(-0.00536745 6.93647e-05 0)
(-0.00546682 6.66648e-05 0)
(-0.00556218 6.38703e-05 0)
(-0.00565338 6.09855e-05 0)
(-0.00574031 5.80147e-05 0)
(-0.00582283 5.49622e-05 0)
(-0.00590083 5.18323e-05 0)
(-0.00597421 4.86295e-05 0)
(-0.00604285 4.5358e-05 0)
(-0.00610666 4.20223e-05 0)
(-0.00616555 3.86269e-05 0)
(-0.00621944 3.51762e-05 0)
(-0.00626825 3.16747e-05 0)
(-0.0063119 2.81269e-05 0)
(-0.00635033 2.45375e-05 0)
(-0.0063835 2.09111e-05 0)
(-0.00641133 1.72522e-05 0)
(-0.0064338 1.35656e-05 0)
(-0.00645086 9.85606e-06 0)
(-0.00646248 6.1283e-06 0)
(-0.00646865 2.38716e-06 0)
(-0.00646934 -1.36252e-06 0)
(-0.00646455 -5.11581e-06 0)
(-0.00645427 -8.86775e-06 0)
(-0.00643852 -1.26133e-05 0)
(-0.0064173 -1.63476e-05 0)
(-0.00639064 -2.00653e-05 0)
(-0.00635857 -2.37615e-05 0)
(-0.00632111 -2.74309e-05 0)
(-0.00627832 -3.10683e-05 0)
(-0.00623025 -3.46684e-05 0)
(-0.00617695 -3.82261e-05 0)
(-0.00611849 -4.1736e-05 0)
(-0.00605494 -4.51927e-05 0)
(-0.00598639 -4.85908e-05 0)
(-0.00591293 -5.19251e-05 0)
(-0.00583465 -5.519e-05 0)
(-0.00575167 -5.83801e-05 0)
(-0.00566409 -6.14901e-05 0)
(-0.00557203 -6.45143e-05 0)
(-0.00547563 -6.74475e-05 0)
(-0.00537503 -7.02842e-05 0)
(-0.00527036 -7.30189e-05 0)
(-0.00516179 -7.56463e-05 0)
(-0.00504947 -7.81609e-05 0)
(-0.00493357 -8.05575e-05 0)
(-0.00481426 -8.28307e-05 0)
(-0.00469174 -8.49752e-05 0)
(-0.0045662 -8.6986e-05 0)
(-0.00443783 -8.88578e-05 0)
(-0.00430684 -9.05856e-05 0)
(-0.00417344 -9.21643e-05 0)
(-0.00403785 -9.35892e-05 0)
(-0.00390031 -9.48554e-05 0)
(-0.00376105 -9.59583e-05 0)
(-0.0036203 -9.68932e-05 0)
(-0.00347832 -9.76558e-05 0)
(-0.00333536 -9.82417e-05 0)
(-0.00319167 -9.86469e-05 0)
(-0.00304753 -9.88674e-05 0)
(-0.00290321 -9.88994e-05 0)
(-0.00275898 -9.87392e-05 0)
(-0.00261512 -9.83835e-05 0)
(-0.00247192 -9.7829e-05 0)
(-0.00232967 -9.70728e-05 0)
(-0.00218866 -9.61122e-05 0)
(-0.00204919 -9.49451e-05 0)
(-0.00191156 -9.35692e-05 0)
(-0.00177607 -9.19823e-05 0)
(-0.00164303 -9.01831e-05 0)
(-0.00151273 -8.81706e-05 0)
(-0.0013855 -8.59441e-05 0)
(-0.00126163 -8.35032e-05 0)
(-0.00114143 -8.08482e-05 0)
(-0.00102521 -7.79801e-05 0)
(-0.000913261 -7.49002e-05 0)
(-0.000805892 -7.16106e-05 0)
(-0.000703394 -6.81139e-05 0)
(-0.000606055 -6.44143e-05 0)
(-0.000514156 -6.05168e-05 0)
(-0.000427966 -5.64276e-05 0)
(-0.000347747 -5.21545e-05 0)
(-0.000273741 -4.77072e-05 0)
(-0.000206177 -4.30978e-05 0)
(-0.000145261 -3.83407e-05 0)
(-9.11721e-05 -3.34543e-05 0)
(-4.40583e-05 -2.84614e-05 0)
(-4.02861e-06 -2.33901e-05 0)
(2.88555e-05 -1.82754e-05 0)
(5.45926e-05 -1.31618e-05 0)
(7.32559e-05 -8.10701e-06 0)
(8.50121e-05 -3.18534e-06 0)
(9.01458e-05 1.50631e-06 0)
(8.90919e-05 5.83922e-06 0)
(8.24785e-05 9.63978e-06 0)
(7.11822e-05 1.26717e-05 0)
(5.63955e-05 1.46141e-05 0)
(3.96779e-05 1.50427e-05 0)
(2.30149e-05 1.34175e-05 0)
(9.18446e-06 9.18277e-06 0)
(1.69617e-06 2.63933e-06 0)
(2.82445e-06 -9.09174e-06 0)
(1.34069e-05 -2.31639e-05 0)
(3.10715e-05 -3.10713e-05 0)
(5.08416e-05 -3.31361e-05 0)
(6.91182e-05 -3.04567e-05 0)
(8.33421e-05 -2.41284e-05 0)
(9.14311e-05 -1.50792e-05 0)
(9.17427e-05 -4.05336e-06 0)
(8.30434e-05 8.36971e-06 0)
(6.44386e-05 2.17422e-05 0)
(3.53072e-05 3.57188e-05 0)
(-4.75198e-06 5.00327e-05 0)
(-5.59627e-05 6.44768e-05 0)
(-0.000118406 7.88891e-05 0)
(-0.000192047 9.31422e-05 0)
(-0.000276758 0.000107135 0)
(-0.000372336 0.000120787 0)
(-0.000478518 0.000134035 0)
(-0.000594991 0.000146828 0)
(-0.000721401 0.000159127 0)
(-0.000857366 0.0001709 0)
(-0.00100247 0.000182122 0)
(-0.00115629 0.000192774 0)
(-0.00131838 0.000202842 0)
(-0.00148828 0.000212317 0)
(-0.00166551 0.00022119 0)
(-0.00184961 0.000229457 0)
(-0.0020401 0.000237118 0)
(-0.00223649 0.00024417 0)
(-0.0024383 0.000250618 0)
(-0.00264506 0.000256463 0)
(-0.00285628 0.00026171 0)
(-0.00307149 0.000266364 0)
(-0.00329022 0.000270432 0)
(-0.00351199 0.000273921 0)
(-0.00373634 0.000276839 0)
(-0.00396282 0.000279195 0)
(-0.00419098 0.000280997 0)
(-0.00442038 0.000282255 0)
(-0.00465057 0.000282978 0)
(-0.00488113 0.000283177 0)
(-0.00511164 0.000282863 0)
(-0.00534169 0.000282046 0)
(-0.00557087 0.000280737 0)
(-0.00579879 0.000278947 0)
(-0.00602507 0.000276687 0)
(-0.00624932 0.00027397 0)
(-0.00647117 0.000270806 0)
(-0.00669028 0.000267207 0)
(-0.00690628 0.000263186 0)
(-0.00711885 0.000258753 0)
(-0.00732764 0.000253921 0)
(-0.00753234 0.000248702 0)
(-0.00773264 0.000243108 0)
(-0.00792824 0.000237151 0)
(-0.00811884 0.000230843 0)
(-0.00830417 0.000224196 0)
(-0.00848395 0.000217223 0)
(-0.00865792 0.000209936 0)
(-0.00882583 0.000202348 0)
(-0.00898744 0.00019447 0)
(-0.00914252 0.000186316 0)
(-0.00929085 0.000177897 0)
(-0.00943221 0.000169227 0)
(-0.00956641 0.000160318 0)
(-0.00969326 0.000151183 0)
(-0.00981257 0.000141834 0)
(-0.00992418 0.000132284 0)
(-0.0100279 0.000122547 0)
(-0.0101237 0.000112636 0)
(-0.0102113 0.000102563 0)
(-0.0102906 9.23415e-05 0)
(-0.0103615 8.19854e-05 0)
(-0.010424 7.15079e-05 0)
(-0.0104779 6.09224e-05 0)
(-0.0105231 5.02427e-05 0)
(-0.0105595 3.94824e-05 0)
(-0.0105872 2.86556e-05 0)
(-0.010606 1.77762e-05 0)
(-0.010616 6.85842e-06 0)
(-0.010617 -4.08358e-06 0)
(-0.0106091 -1.50354e-05 0)
(-0.0105923 -2.59824e-05 0)
(-0.0105666 -3.69102e-05 0)
(-0.010532 -4.78037e-05 0)
(-0.0104886 -5.86483e-05 0)
(-0.0104363 -6.94288e-05 0)
(-0.0103753 -8.01302e-05 0)
(-0.0103056 -9.07372e-05 0)
(-0.0102273 -0.000101235 0)
(-0.0101406 -0.000111607 0)
(-0.0100454 -0.000121838 0)
(-0.00994202 -0.000131914 0)
(-0.00983047 -0.000141817 0)
(-0.00971095 -0.000151533 0)
(-0.0095836 -0.000161046 0)
(-0.00944861 -0.000170339 0)
(-0.00930615 -0.000179398 0)
(-0.00915642 -0.000188205 0)
(-0.00899964 -0.000196746 0)
(-0.00883604 -0.000205005 0)
(-0.00866584 -0.000212965 0)
(-0.0084893 -0.000220612 0)
(-0.00830667 -0.00022793 0)
(-0.00811825 -0.000234902 0)
(-0.0079243 -0.000241515 0)
(-0.00772513 -0.000247752 0)
(-0.00752106 -0.000253599 0)
(-0.00731241 -0.00025904 0)
(-0.0070995 -0.000264062 0)
(-0.00688269 -0.00026865 0)
(-0.00666235 -0.00027279 0)
(-0.00643882 -0.000276468 0)
(-0.00621251 -0.00027967 0)
(-0.00598379 -0.000282385 0)
(-0.00575307 -0.000284598 0)
(-0.00552076 -0.000286298 0)
(-0.00528729 -0.000287474 0)
(-0.00505307 -0.000288114 0)
(-0.00481854 -0.000288206 0)
(-0.00458416 -0.000287743 0)
(-0.00435038 -0.000286713 0)
(-0.00411766 -0.000285108 0)
(-0.00388645 -0.00028292 0)
(-0.00365725 -0.000280141 0)
(-0.00343052 -0.000276766 0)
(-0.00320674 -0.00027279 0)
(-0.0029864 -0.000268206 0)
(-0.00277 -0.000263012 0)
(-0.00255801 -0.000257206 0)
(-0.00235092 -0.000250786 0)
(-0.00214924 -0.000243753 0)
(-0.00195343 -0.000236109 0)
(-0.00176399 -0.000227857 0)
(-0.0015814 -0.000219004 0)
(-0.00140613 -0.000209558 0)
(-0.00123863 -0.000199528 0)
(-0.00107936 -0.000188929 0)
(-0.00092876 -0.000177776 0)
(-0.000787243 -0.000166093 0)
(-0.00065521 -0.000153903 0)
(-0.000533033 -0.000141239 0)
(-0.000421054 -0.000128139 0)
(-0.000319576 -0.00011465 0)
(-0.00022886 -0.000100829 0)
(-0.000149111 -8.6746e-05 0)
(-8.04695e-05 -7.24885e-05 0)
(-2.29954e-05 -5.81627e-05 0)
(2.33464e-05 -4.3901e-05 0)
(5.87097e-05 -2.98701e-05 0)
(8.33938e-05 -1.62804e-05 0)
(9.78758e-05 -3.39998e-06 0)
(0.000102852 8.42838e-06 0)
(9.92861e-05 1.87635e-05 0)
(8.84727e-05 2.70382e-05 0)
(7.20978e-05 3.25335e-05 0)
(5.22661e-05 3.4367e-05 0)
(3.15264e-05 3.15194e-05 0)
(1.34161e-05 2.30187e-05 0)
(2.77712e-06 8.77195e-06 0)
(3.20606e-06 -1.69375e-05 0)
(1.47516e-05 -3.94171e-05 0)
(3.32142e-05 -5.08529e-05 0)
(5.27271e-05 -5.2612e-05 0)
(6.91839e-05 -4.64299e-05 0)
(7.96742e-05 -3.39801e-05 0)
(8.17866e-05 -1.6723e-05 0)
(7.35711e-05 4.12894e-06 0)
(5.35196e-05 2.7596e-05 0)
(2.05034e-05 5.2896e-05 0)
(-2.62869e-05 7.94072e-05 0)
(-8.7395e-05 0.000106636 0)
(-0.000163144 0.000134189 0)
(-0.000253676 0.000161753 0)
(-0.000358981 0.000189079 0)
(-0.000478926 0.000215966 0)
(-0.000613275 0.000242251 0)
(-0.00076171 0.000267805 0)
(-0.000923841 0.000292522 0)
(-0.00109923 0.00031632 0)
(-0.00128737 0.000339131 0)
(-0.00148775 0.000360902 0)
(-0.0016998 0.000381592 0)
(-0.00192293 0.000401168 0)
(-0.00215656 0.000419606 0)
(-0.00240005 0.00043689 0)
(-0.00265279 0.000453007 0)
(-0.00291412 0.000467952 0)
(-0.00318342 0.000481721 0)
(-0.00346004 0.000494315 0)
(-0.00374334 0.000505739 0)
(-0.00403266 0.000516 0)
(-0.00432737 0.000525106 0)
(-0.00462683 0.000533069 0)
(-0.00493042 0.000539901 0)
(-0.0052375 0.000545616 0)
(-0.00554746 0.000550231 0)
(-0.00585968 0.000553761 0)
(-0.00617358 0.000556225 0)
(-0.00648854 0.00055764 0)
(-0.006804 0.000558027 0)
(-0.00711938 0.000557404 0)
(-0.00743411 0.000555794 0)
(-0.00774766 0.000553216 0)
(-0.00805947 0.000549692 0)
(-0.00836903 0.000545244 0)
(-0.00867581 0.000539894 0)
(-0.00897933 0.000533664 0)
(-0.00927908 0.000526578 0)
(-0.00957458 0.000518658 0)
(-0.00986538 0.000509928 0)
(-0.010151 0.00050041 0)
(-0.0104311 0.000490129 0)
(-0.0107051 0.000479108 0)
(-0.0109727 0.00046737 0)
(-0.0112334 0.00045494 0)
(-0.011487 0.000441842 0)
(-0.0117329 0.0004281 0)
(-0.0119709 0.000413738 0)
(-0.0122006 0.00039878 0)
(-0.0124217 0.000383252 0)
(-0.0126339 0.000367177 0)
(-0.0128368 0.00035058 0)
(-0.0130301 0.000333487 0)
(-0.0132137 0.000315922 0)
(-0.0133872 0.000297911 0)
(-0.0135504 0.000279478 0)
(-0.013703 0.00026065 0)
(-0.0138449 0.000241451 0)
(-0.0139759 0.000221909 0)
(-0.0140956 0.000202048 0)
(-0.0142041 0.000181894 0)
(-0.0143011 0.000161476 0)
(-0.0143864 0.000140818 0)
(-0.01446 0.000119947 0)
(-0.0145218 9.88914e-05 0)
(-0.0145716 7.76777e-05 0)
(-0.0146093 5.63334e-05 0)
(-0.014635 3.48862e-05 0)
(-0.0146485 1.33642e-05 0)
(-0.0146498 -8.20448e-06 0)
(-0.0146389 -2.97914e-05 0)
(-0.0146158 -5.13678e-05 0)
(-0.0145805 -7.29048e-05 0)
(-0.0145331 -9.43732e-05 0)
(-0.0144735 -0.000115744 0)
(-0.0144019 -0.000136987 0)
(-0.0143184 -0.000158072 0)
(-0.0142229 -0.00017897 0)
(-0.0141158 -0.00019965 0)
(-0.013997 -0.000220082 0)
(-0.0138667 -0.000240236 0)
(-0.0137252 -0.00026008 0)
(-0.0135725 -0.000279584 0)
(-0.013409 -0.000298717 0)
(-0.0132347 -0.000317447 0)
(-0.01305 -0.000335745 0)
(-0.0128551 -0.000353578 0)
(-0.0126503 -0.000370915 0)
(-0.0124358 -0.000387726 0)
(-0.012212 -0.00040398 0)
(-0.0119792 -0.000419645 0)
(-0.0117377 -0.000434692 0)
(-0.011488 -0.000449089 0)
(-0.0112303 -0.000462806 0)
(-0.010965 -0.000475813 0)
(-0.0106927 -0.00048808 0)
(-0.0104136 -0.000499579 0)
(-0.0101283 -0.00051028 0)
(-0.00983722 -0.000520154 0)
(-0.00954079 -0.000529175 0)
(-0.00923952 -0.000537313 0)
(-0.00893391 -0.000544544 0)
(-0.0086245 -0.00055084 0)
(-0.0083118 -0.000556177 0)
(-0.00799637 -0.00056053 0)
(-0.00767876 -0.000563875 0)
(-0.00735954 -0.000566191 0)
(-0.00703931 -0.000567454 0)
(-0.00671865 -0.000567646 0)
(-0.00639816 -0.000566747 0)
(-0.00607848 -0.000564738 0)
(-0.00576021 -0.000561604 0)
(-0.00544399 -0.00055733 0)
(-0.00513047 -0.000551901 0)
(-0.00482028 -0.000545307 0)
(-0.00451408 -0.000537537 0)
(-0.00421252 -0.000528584 0)
(-0.00391626 -0.000518443 0)
(-0.00362596 -0.000507109 0)
(-0.00334227 -0.000494583 0)
(-0.00306586 -0.000480868 0)
(-0.00279737 -0.000465968 0)
(-0.00253745 -0.000449894 0)
(-0.00228674 -0.000432659 0)
(-0.00204586 -0.00041428 0)
(-0.00181542 -0.000394782 0)
(-0.00159603 -0.000374195 0)
(-0.00138825 -0.000352553 0)
(-0.00119263 -0.000329904 0)
(-0.00100969 -0.0003063 0)
(-0.000839904 -0.000281808 0)
(-0.000683711 -0.000256509 0)
(-0.000541492 -0.000230498 0)
(-0.000413566 -0.000203893 0)
(-0.000300177 -0.000176837 0)
(-0.00020148 -0.0001495 0)
(-0.000117521 -0.000122096 0)
(-4.82217e-05 -9.48834e-05 0)
(6.65301e-06 -6.81811e-05 0)
(4.75205e-05 -4.23859e-05 0)
(7.50192e-05 -1.79913e-05 0)
(9.005e-05 4.3867e-06 0)
(9.38252e-05 2.39796e-05 0)
(8.79257e-05 3.98334e-05 0)
(7.43573e-05 5.07825e-05 0)
(5.5561e-05 5.5445e-05 0)
(3.44405e-05 5.22679e-05 0)
(1.50612e-05 3.9698e-05 0)
(3.21441e-06 1.66712e-05 0)
(3.13437e-06 -2.49186e-05 0)
(1.40453e-05 -5.53668e-05 0)
(3.06748e-05 -6.92094e-05 0)
(4.67824e-05 -6.9105e-05 0)
(5.79818e-05 -5.75644e-05 0)
(6.11401e-05 -3.68875e-05 0)
(5.36494e-05 -9.08214e-06 0)
(3.33749e-05 2.41577e-05 0)
(-1.36492e-06 6.14317e-05 0)
(-5.18559e-05 0.000101596 0)
(-0.000119043 0.00014372 0)
(-0.000203578 0.00018705 0)
(-0.000305866 0.000230974 0)
(-0.000426099 0.000274997 0)
(-0.000564294 0.000318717 0)
(-0.00072032 0.000361806 0)
(-0.000893921 0.000403999 0)
(-0.00108473 0.000445078 0)
(-0.00129231 0.000484868 0)
(-0.00151614 0.000523225 0)
(-0.00175563 0.000560033 0)
(-0.00201016 0.000595201 0)
(-0.00227906 0.000628654 0)
(-0.00256162 0.000660334 0)
(-0.00285712 0.000690198 0)
(-0.0031648 0.000718213 0)
(-0.0034839 0.000744355 0)
(-0.00381365 0.000768609 0)
(-0.00415325 0.000790968 0)
(-0.00450191 0.000811431 0)
(-0.00485884 0.000830001 0)
(-0.00522325 0.000846686 0)
(-0.00559434 0.000861499 0)
(-0.00597133 0.000874455 0)
(-0.00635342 0.000885573 0)
(-0.00673985 0.000894874 0)
(-0.00712985 0.000902383 0)
(-0.00752265 0.000908125 0)
(-0.00791751 0.000912127 0)
(-0.00831368 0.000914418 0)
(-0.00871045 0.00091503 0)
(-0.0091071 0.000913993 0)
(-0.00950291 0.00091134 0)
(-0.00989722 0.000907105 0)
(-0.0102893 0.000901322 0)
(-0.0106786 0.000894026 0)
(-0.0110644 0.000885253 0)
(-0.011446 0.00087504 0)
(-0.011823 0.000863423 0)
(-0.0121945 0.000850439 0)
(-0.0125602 0.000836126 0)
(-0.0129193 0.000820522 0)
(-0.0132715 0.000803666 0)
(-0.013616 0.000785595 0)
(-0.0139525 0.000766349 0)
(-0.0142803 0.000745967 0)
(-0.0145991 0.000724488 0)
(-0.0149084 0.000701952 0)
(-0.0152076 0.000678398 0)
(-0.0154964 0.000653867 0)
(-0.0157744 0.000628398 0)
(-0.0160411 0.000602033 0)
(-0.0162962 0.000574811 0)
(-0.0165393 0.000546774 0)
(-0.01677 0.000517962 0)
(-0.0169881 0.000488418 0)
(-0.0171933 0.000458182 0)
(-0.0173851 0.000427297 0)
(-0.0175635 0.000395805 0)
(-0.017728 0.000363748 0)
(-0.0178786 0.000331169 0)
(-0.0180148 0.000298111 0)
(-0.0181367 0.000264618 0)
(-0.0182439 0.000230733 0)
(-0.0183364 0.0001965 0)
(-0.0184139 0.000161964 0)
(-0.0184764 0.00012717 0)
(-0.0185237 9.21634e-05 0)
(-0.0185559 5.69889e-05 0)
(-0.0185727 2.1693e-05 0)
(-0.0185742 -1.3678e-05 0)
(-0.0185604 -4.90773e-05 0)
(-0.0185312 -8.44578e-05 0)
(-0.0184868 -0.000119772 0)
(-0.018427 -0.000154972 0)
(-0.018352 -0.000190009 0)
(-0.0182618 -0.000224835 0)
(-0.0181567 -0.000259401 0)
(-0.0180366 -0.000293657 0)
(-0.0179017 -0.000327555 0)
(-0.0177523 -0.000361044 0)
(-0.0175884 -0.000394073 0)
(-0.0174104 -0.000426593 0)
(-0.0172184 -0.000458554 0)
(-0.0170127 -0.000489904 0)
(-0.0167936 -0.000520593 0)
(-0.0165613 -0.000550569 0)
(-0.0163162 -0.000579783 0)
(-0.0160587 -0.000608183 0)
(-0.015789 -0.000635719 0)
(-0.0155077 -0.000662339 0)
(-0.015215 -0.000687994 0)
(-0.0149115 -0.000712634 0)
(-0.0145976 -0.000736208 0)
(-0.0142737 -0.000758668 0)
(-0.0139403 -0.000779963 0)
(-0.013598 -0.000800047 0)
(-0.0132473 -0.000818871 0)
(-0.0128887 -0.000836389 0)
(-0.0125228 -0.000852553 0)
(-0.0121503 -0.000867319 0)
(-0.0117717 -0.000880643 0)
(-0.0113876 -0.000892481 0)
(-0.0109988 -0.000902791 0)
(-0.0106058 -0.000911532 0)
(-0.0102094 -0.000918665 0)
(-0.00981021 -0.000924153 0)
(-0.00940902 -0.000927958 0)
(-0.00900652 -0.000930047 0)
(-0.00860346 -0.000930387 0)
(-0.0082006 -0.000928947 0)
(-0.00779871 -0.0009257 0)
(-0.00739855 -0.000920619 0)
(-0.00700093 -0.00091368 0)
(-0.00660663 -0.000904865 0)
(-0.00621645 -0.000894153 0)
(-0.00583121 -0.000881532 0)
(-0.00545172 -0.000866989 0)
(-0.00507878 -0.000850519 0)
(-0.00471322 -0.000832118 0)
(-0.00435585 -0.000811787 0)
(-0.00400748 -0.000789533 0)
(-0.0036689 -0.000765368 0)
(-0.00334091 -0.00073931 0)
(-0.0030243 -0.000711385 0)
(-0.00271983 -0.000681625 0)
(-0.00242824 -0.000650073 0)
(-0.00215026 -0.000616781 0)
(-0.00188657 -0.000581813 0)
(-0.00163785 -0.000545248 0)
(-0.0014047 -0.000507179 0)
(-0.0011877 -0.000467719 0)
(-0.000987358 -0.000427005 0)
(-0.000804119 -0.000385199 0)
(-0.000638347 -0.000342496 0)
(-0.000490314 -0.000299132 0)
(-0.000360181 -0.00025539 0)
(-0.000247978 -0.000211611 0)
(-0.000153583 -0.00016821 0)
(-7.66939e-05 -0.000125693 0)
(-1.6797e-05 -8.46733e-05 0)
(2.68688e-05 -4.59032e-05 0)
(5.53527e-05 -1.03018e-05 0)
(7.00365e-05 2.10102e-05 0)
(7.2687e-05 4.66742e-05 0)
(6.55079e-05 6.50648e-05 0)
(5.11489e-05 7.42807e-05 0)
(3.27481e-05 7.21798e-05 0)
(1.46847e-05 5.64788e-05 0)
(3.20295e-06 2.48738e-05 0)
(2.77321e-06 -3.20943e-05 0)
(1.18614e-05 -6.90509e-05 0)
(2.45483e-05 -8.36259e-05 0)
(3.46775e-05 -7.97576e-05 0)
(3.7801e-05 -6.07872e-05 0)
(3.06717e-05 -2.96701e-05 0)
(1.05821e-05 1.10306e-05 0)
(-2.46974e-05 5.91374e-05 0)
(-7.69441e-05 0.000112824 0)
(-0.000147536 0.000170574 0)
(-0.000237505 0.000231131 0)
(-0.000347574 0.000293462 0)
(-0.000478204 0.000356715 0)
(-0.000629627 0.000420189 0)
(-0.000801878 0.00048331 0)
(-0.000994828 0.000545602 0)
(-0.0012082 0.000606675 0)
(-0.00144161 0.000666209 0)
(-0.00169455 0.000723939 0)
(-0.00196644 0.00077965 0)
(-0.00225663 0.000833165 0)
(-0.0025644 0.000884341 0)
(-0.00288898 0.000933063 0)
(-0.00322958 0.00097924 0)
(-0.00358535 0.0010228 0)
(-0.00395541 0.00106369 0)
(-0.00433889 0.00110187 0)
(-0.00473488 0.00113731 0)
(-0.00514246 0.00117 0)
(-0.0055607 0.00119992 0)
(-0.00598867 0.00122709 0)
(-0.00642545 0.00125151 0)
(-0.00687009 0.0012732 0)
(-0.00732167 0.00129216 0)
(-0.00777927 0.00130844 0)
(-0.00824197 0.00132206 0)
(-0.00870886 0.00133304 0)
(-0.00917904 0.00134144 0)
(-0.00965162 0.00134727 0)
(-0.0101257 0.0013506 0)
(-0.0106005 0.00135145 0)
(-0.0110751 0.00134988 0)
(-0.0115487 0.00134593 0)
(-0.0120204 0.00133965 0)
(-0.0124895 0.00133109 0)
(-0.0129552 0.0013203 0)
(-0.0134166 0.00130734 0)
(-0.0138732 0.00129224 0)
(-0.014324 0.00127508 0)
(-0.0147685 0.0012559 0)
(-0.0152058 0.00123476 0)
(-0.0156354 0.00121171 0)
(-0.0160566 0.00118682 0)
(-0.0164687 0.00116013 0)
(-0.0168711 0.0011317 0)
(-0.0172632 0.0011016 0)
(-0.0176444 0.00106987 0)
(-0.0180143 0.00103658 0)
(-0.0183721 0.00100179 0)
(-0.0187175 0.000965557 0)
(-0.0190499 0.000927936 0)
(-0.0193689 0.000888989 0)
(-0.0196739 0.000848777 0)
(-0.0199646 0.00080736 0)
(-0.0202405 0.000764798 0)
(-0.0205013 0.000721154 0)
(-0.0207466 0.000676488 0)
(-0.020976 0.000630863 0)
(-0.0211891 0.000584341 0)
(-0.0213858 0.000536985 0)
(-0.0215658 0.000488858 0)
(-0.0217287 0.000440025 0)
(-0.0218743 0.000390549 0)
(-0.0220024 0.000340495 0)
(-0.0221128 0.000289929 0)
(-0.0222054 0.000238916 0)
(-0.02228 0.000187524 0)
(-0.0223365 0.000135818 0)
(-0.0223748 8.38663e-05 0)
(-0.0223948 3.17373e-05 0)
(-0.0223965 -2.05007e-05 0)
(-0.0223799 -7.27783e-05 0)
(-0.0223448 -0.000125026 0)
(-0.0222915 -0.000177173 0)
(-0.0222199 -0.000229149 0)
(-0.0221301 -0.000280883 0)
(-0.0220221 -0.000332302 0)
(-0.0218962 -0.000383334 0)
(-0.0217525 -0.000433907 0)
(-0.0215912 -0.000483947 0)
(-0.0214123 -0.00053338 0)
(-0.0212163 -0.000582134 0)
(-0.0210033 -0.000630132 0)
(-0.0207736 -0.000677302 0)
(-0.0205276 -0.000723568 0)
(-0.0202655 -0.000768855 0)
(-0.0199877 -0.000813089 0)
(-0.0196946 -0.000856194 0)
(-0.0193866 -0.000898096 0)
(-0.0190642 -0.000938721 0)
(-0.0187278 -0.000977993 0)
(-0.0183778 -0.00101584 0)
(-0.0180149 -0.00105218 0)
(-0.0176395 -0.00108696 0)
(-0.0172523 -0.00112008 0)
(-0.0168537 -0.00115149 0)
(-0.0164444 -0.00118112 0)
(-0.0160252 -0.00120888 0)
(-0.0155965 -0.00123472 0)
(-0.0151591 -0.00125856 0)
(-0.0147137 -0.00128034 0)
(-0.0142611 -0.0013 0)
(-0.0138019 -0.00131746 0)
(-0.0133371 -0.00133268 0)
(-0.0128672 -0.00134559 0)
(-0.0123933 -0.00135613 0)
(-0.011916 -0.00136425 0)
(-0.0114363 -0.0013699 0)
(-0.010955 -0.00137302 0)
(-0.010473 -0.00137358 0)
(-0.00999116 -0.00137152 0)
(-0.00951045 -0.0013668 0)
(-0.00903175 -0.0013594 0)
(-0.00855601 -0.00134927 0)
(-0.00808416 -0.00133639 0)
(-0.00761716 -0.00132074 0)
(-0.00715595 -0.00130229 0)
(-0.0067015 -0.00128103 0)
(-0.00625475 -0.00125695 0)
(-0.00581668 -0.00123005 0)
(-0.00538824 -0.00120034 0)
(-0.00497037 -0.00116783 0)
(-0.00456401 -0.00113254 0)
(-0.0041701 -0.0010945 0)
(-0.00378954 -0.00105376 0)
(-0.00342322 -0.00101036 0)
(-0.00307201 -0.000964367 0)
(-0.00273675 -0.000915873 0)
(-0.00241823 -0.000864972 0)
(-0.00211721 -0.000811786 0)
(-0.0018344 -0.000756459 0)
(-0.00157044 -0.000699162 0)
(-0.00132591 -0.0006401 0)
(-0.00110131 -0.000579518 0)
(-0.000897041 -0.000517706 0)
(-0.000713393 -0.00045501 0)
(-0.000550534 -0.000391843 0)
(-0.000408479 -0.000328698 0)
(-0.000287073 -0.000266169 0)
(-0.000185964 -0.000204967 0)
(-0.000104569 -0.000145946 0)
(-4.20407e-05 -9.01361e-05 0)
(2.76572e-06 -3.87746e-05 0)
(3.1338e-05 6.65515e-06 0)
(4.55509e-05 4.43847e-05 0)
(4.77168e-05 7.23246e-05 0)
(4.0601e-05 8.80415e-05 0)
(2.74772e-05 8.87663e-05 0)
(1.28289e-05 7.14188e-05 0)
(2.89988e-06 3.24456e-05 0)
(2.2293e-06 -3.78235e-05 0)
(8.63669e-06 -7.89575e-05 0)
(1.57533e-05 -9.20576e-05 0)
(1.78532e-05 -8.22012e-05 0)
(1.06158e-05 -5.35364e-05 0)
(-9.22151e-06 -9.6685e-06 0)
(-4.43833e-05 4.62901e-05 0)
(-9.71223e-05 0.000111686 0)
(-0.000169249 0.000184271 0)
(-0.000262182 0.000262155 0)
(-0.000376991 0.000343753 0)
(-0.00051444 0.000427741 0)
(-0.000675019 0.000513016 0)
(-0.000858981 0.000598657 0)
(-0.00106637 0.000683901 0)
(-0.00129705 0.00076811 0)
(-0.00155073 0.000850754 0)
(-0.00182699 0.000931395 0)
(-0.00212529 0.00100967 0)
(-0.00244499 0.00108527 0)
(-0.00278537 0.00115795 0)
(-0.00314563 0.00122752 0)
(-0.00352494 0.00129379 0)
(-0.00392239 0.00135665 0)
(-0.00433704 0.00141598 0)
(-0.00476792 0.00147171 0)
(-0.00521403 0.00152377 0)
(-0.00567435 0.00157212 0)
(-0.00614784 0.00161673 0)
(-0.00663346 0.00165758 0)
(-0.00713014 0.00169469 0)
(-0.00763684 0.00172804 0)
(-0.00815248 0.00175766 0)
(-0.00867601 0.00178357 0)
(-0.00920638 0.0018058 0)
(-0.00974255 0.00182439 0)
(-0.0102835 0.00183938 0)
(-0.0108281 0.00185082 0)
(-0.0113754 0.00185875 0)
(-0.0119245 0.00186323 0)
(-0.0124742 0.00186432 0)
(-0.0130237 0.00186208 0)
(-0.0135719 0.00185658 0)
(-0.014118 0.00184786 0)
(-0.014661 0.00183601 0)
(-0.0152 0.0018211 0)
(-0.0157341 0.00180318 0)
(-0.0162625 0.00178234 0)
(-0.0167843 0.00175865 0)
(-0.0172986 0.00173218 0)
(-0.0178047 0.00170301 0)
(-0.0183019 0.00167121 0)
(-0.0187892 0.00163685 0)
(-0.0192661 0.00160003 0)
(-0.0197317 0.00156081 0)
(-0.0201854 0.00151928 0)
(-0.0206265 0.00147551 0)
(-0.0210544 0.00142959 0)
(-0.0214685 0.00138159 0)
(-0.0218681 0.0013316 0)
(-0.0222527 0.0012797 0)
(-0.0226217 0.00122597 0)
(-0.0229745 0.00117049 0)
(-0.0233108 0.00111335 0)
(-0.02363 0.00105463 0)
(-0.0239317 0.000994421 0)
(-0.0242154 0.0009328 0)
(-0.0244807 0.000869855 0)
(-0.0247273 0.000805674 0)
(-0.0249547 0.000740343 0)
(-0.0251628 0.000673949 0)
(-0.0253511 0.000606582 0)
(-0.0255195 0.000538329 0)
(-0.0256676 0.00046928 0)
(-0.0257953 0.000399526 0)
(-0.0259023 0.000329158 0)
(-0.0259884 0.000258268 0)
(-0.0260537 0.000186948 0)
(-0.0260978 0.000115291 0)
(-0.0261208 4.33913e-05 0)
(-0.0261227 -2.86558e-05 0)
(-0.0261032 -0.000100755 0)
(-0.0260626 -0.00017281 0)
(-0.0260007 -0.000244723 0)
(-0.0259177 -0.000316398 0)
(-0.0258137 -0.000387735 0)
(-0.0256887 -0.000458635 0)