/*--------------------------------*- C++ -*----------------------------------*\
  =========                 |
  \\      /  F ield         | OpenFOAM: The Open Source CFD Toolbox
   \\    /   O peration     | Website:  https://openfoam.org
    \\  /    A nd           | Version:  7
     \\/     M anipulation  |
\*---------------------------------------------------------------------------*/
FoamFile
{
    version     2.0;
    format      ascii;
    class       volScalarField;
    location    "0.1875";
    object      p;
}
// * * * * * * * * * * * * * * * * * * * * * * * * * * * * * * * * * * * * * //

dimensions      [0 2 -2 0 0 0 0];

internalField   nonuniform List<scalar> 
25600
(
-4.45387e-08
0.000112502
0.000142437
3.50673e-05
-0.00021792
-0.000612162
-0.00113649
-0.00177636
-0.00251623
-0.0033409
-0.00423587
-0.00518745
-0.00618304
-0.007211
-0.00826065
-0.00932215
-0.0103865
-0.0114453
-0.0124912
-0.0135171
-0.0145168
-0.0154843
-0.0164146
-0.0173029
-0.0181446
-0.018936
-0.0196734
-0.0203537
-0.0209738
-0.0215313
-0.022024
-0.0224498
-0.0228069
-0.0230939
-0.0233096
-0.0234528
-0.0235226
-0.0235185
-0.0234399
-0.0232867
-0.0230586
-0.0227557
-0.0223782
-0.0219265
-0.021401
-0.0208022
-0.0201309
-0.0193879
-0.0185741
-0.0176906
-0.0167385
-0.0157191
-0.0146337
-0.0134838
-0.0122709
-0.0109965
-0.00966243
-0.00827032
-0.00682205
-0.00531951
-0.00376468
-0.00215958
-0.000506309
0.00119299
0.00293612
0.00472084
0.00654484
0.00840577
0.0103012
0.0122288
0.014186
0.0161702
0.018179
0.0202097
0.0222596
0.0243262
0.0264068
0.0284986
0.0305988
0.0327049
0.0348138
0.036923
0.0390295
0.0411307
0.0432236
0.0453056
0.0473737
0.0494253
0.0514574
0.0534673
0.0554522
0.0574094
0.0593362
0.0612298
0.0630877
0.0649072
0.0666856
0.0684203
0.070109
0.0717491
0.0733383
0.0748743
0.0763548
0.0777775
0.0791403
0.0804413
0.0816785
0.0828501
0.0839542
0.0849893
0.0859539
0.0868464
0.0876655
0.0884102
0.0890794
0.0896722
0.0901879
0.0906258
0.0909856
0.0912669
0.0914697
0.091594
0.0916403
0.0916089
0.0915006
0.0913163
0.091057
0.0907242
0.0903195
0.0898447
0.089302
0.0886938
0.0880229
0.0872921
0.0865049
0.0856648
0.0847759
0.0838427
0.0828699
0.0818627
0.0808269
0.0797684
0.0786941
0.0776111
0.0765274
0.0754512
0.0743918
0.073359
0.0723636
0.0714169
0.0705315
0.0697204
0.0689975
0.0683774
0.0678744
0.0675016
0.0672684
0.0671767
0.0672157
0.0673301
-0.000109709
2.71681e-06
7.75652e-06
-0.000112616
-0.000354356
-0.000715664
-0.00118986
-0.00176646
-0.00243346
-0.00317849
-0.00398933
-0.00485411
-0.00576161
-0.00670126
-0.00766326
-0.00863847
-0.00961839
-0.0105952
-0.0115616
-0.0125111
-0.0134375
-0.0143351
-0.015199
-0.0160243
-0.0168068
-0.0175427
-0.0182284
-0.0188606
-0.0194366
-0.0199537
-0.0204097
-0.0208025
-0.0211303
-0.0213917
-0.0215854
-0.0217102
-0.0217652
-0.0217497
-0.0216632
-0.0215053
-0.0212759
-0.020975
-0.0206026
-0.0201591
-0.0196447
-0.0190601
-0.0184059
-0.0176827
-0.0168915
-0.0160333
-0.0151091
-0.0141201
-0.0130676
-0.0119529
-0.0107774
-0.00954276
-0.0082505
-0.00690229
-0.0054999
-0.00404515
-0.00253994
-0.000986209
0.000614031
0.00225872
0.00394573
0.0056729
0.00743802
0.00923879
0.0110729
0.012938
0.0148317
0.0167515
0.018695
0.0206597
0.022643
0.0246423
0.0266551
0.0286786
0.0307104
0.0327476
0.0347877
0.0368278
0.0388655
0.0408978
0.0429222
0.0449358
0.0469361
0.0489203
0.0508856
0.0528294
0.0547491
0.0566419
0.0585052
0.0603365
0.0621333
0.0638928
0.0656128
0.0672906
0.0689239
0.0705103
0.0720476
0.0735335
0.0749659
0.0763426
0.0776616
0.0789211
0.0801191
0.0812539
0.0823239
0.0833274
0.0842632
0.0851297
0.0859258
0.0866504
0.0873026
0.0878815
0.0883865
0.0888171
0.0891729
0.0894536
0.0896593
0.0897902
0.0898466
0.089829
0.0897381
0.089575
0.0893406
0.0890366
0.0886644
0.088226
0.0877236
0.0871594
0.0865363
0.0858571
0.0851251
0.084344
0.0835178
0.0826506
0.0817472
0.0808128
0.0798527
0.0788729
0.0778798
0.0768803
0.0758818
0.0748924
0.0739206
0.0729756
0.072067
0.0712054
0.0704017
0.0696673
0.0690138
0.0684529
0.0679956
0.0676513
0.0674252
0.0673174
0.0673302
0.0674445
-0.000135897
6.29885e-07
5.21759e-06
-0.000116678
-0.000348601
-0.000687445
-0.00112774
-0.00166073
-0.00227631
-0.00296395
-0.00371299
-0.00451297
-0.00535385
-0.00622596
-0.00712025
-0.00802822
-0.00894187
-0.0098538
-0.0107571
-0.0116455
-0.012513
-0.0133543
-0.0141644
-0.0149387
-0.015673
-0.0163635
-0.0170068
-0.0175997
-0.0181393
-0.0186231
-0.0190488
-0.0194144
-0.019718
-0.0199582
-0.0201336
-0.020243
-0.0202856
-0.0202607
-0.0201675
-0.0200058
-0.0197752
-0.0194759
-0.0191077
-0.018671
-0.018166
-0.0175933
-0.0169533
-0.0162468
-0.0154745
-0.0146375
-0.0137367
-0.0127732
-0.0117483
-0.0106632
-0.00951928
-0.00831805
-0.00706102
-0.0057498
-0.00438606
-0.00297158
-0.00150818
2.24313e-06
0.00155776
0.00315639
0.00479608
0.00647472
0.00819016
0.0099402
0.0117226
0.013535
0.0153751
0.0172406
0.0191291
0.021038
0.0229651
0.0249077
0.0268633
0.0288293
0.0308032
0.0327824
0.0347644
0.0367464
0.0387259
0.0407003
0.0426669
0.044623
0.0465661
0.0484935
0.0504027
0.0522909
0.0541556
0.0559942
0.0578043
0.0595832
0.0613285
0.0630378
0.0647086
0.0663385
0.0679254
0.0694667
0.0709605
0.0724044
0.0737965
0.0751346
0.076417
0.0776416
0.0788069
0.079911
0.0809524
0.0819296
0.0828412
0.083686
0.0844629
0.0851707
0.0858087
0.0863761
0.0868722
0.0872967
0.0876491
0.0879294
0.0881375
0.0882738
0.0883385
0.0883324
0.0882559
0.0881102
0.0878965
0.0876161
0.0872707
0.0868622
0.0863928
0.0858647
0.0852807
0.0846436
0.0839567
0.0832236
0.0824481
0.0816344
0.080787
0.079911
0.0790115
0.0780944
0.0771657
0.076232
0.0753005
0.0743787
0.0734745
0.0725965
0.0717538
0.0709557
0.0702121
0.0695331
0.0689287
0.0684089
0.0679829
0.0676585
0.0674402
0.06733
0.0673429
0.0674837
-2.58898e-05
0.000123282
0.000128915
6.84266e-06
-0.000219308
-0.000544463
-0.000962918
-0.00146651
-0.00204615
-0.00269243
-0.0033958
-0.0041469
-0.00493656
-0.00575599
-0.00659679
-0.00745103
-0.00831125
-0.00917043
-0.010022
-0.01086
-0.0116788
-0.0124731
-0.0132382
-0.0139696
-0.0146632
-0.0153153
-0.0159226
-0.0164819
-0.0169905
-0.0174457
-0.0178454
-0.0181875
-0.0184703
-0.0186922
-0.0188518
-0.018948
-0.0189799
-0.0189466
-0.0188477
-0.0186826
-0.0184511
-0.0181531
-0.0177887
-0.017358
-0.0168612
-0.0162988
-0.0156713
-0.0149795
-0.0142239
-0.0134055
-0.0125253
-0.0115844
-0.0105837
-0.00952473
-0.00840865
-0.0072369
-0.00601096
-0.00473238
-0.00340279
-0.00202388
-0.000597433
0.000874744
0.00239076
0.00394869
0.00554653
0.00718227
0.00885378
0.0105589
0.0122956
0.0140614
0.0158542
0.0176716
0.0195114
0.0213711
0.0232484
0.0251408
0.0270459
0.028961
0.0308839
0.0328119
0.0347424
0.0366731
0.0386013
0.0405245
0.04244
0.0443454
0.0462381
0.0481154
0.049975
0.0518141
0.0536304
0.0554213
0.0571844
0.0589172
0.0606173
0.0622823
0.0639099
0.0654978
0.0670437
0.0685455
0.0700009
0.071408
0.0727647
0.0740691
0.0753192
0.0765134
0.0776499
0.078727
0.0797434
0.0806975
0.0815881
0.0824139
0.0831739
0.0838671
0.0844927
0.0850499
0.0855383
0.0859574
0.0863069
0.0865867
0.0867969
0.0869377
0.0870097
0.0870132
0.0869492
0.0868185
0.0866224
0.0863623
0.0860398
0.0856569
0.0852155
0.0847182
0.0841674
0.083566
0.0829172
0.0822244
0.0814916
0.0807227
0.0799221
0.0790945
0.0782452
0.0773795
0.0765035
0.0756233
0.0747457
0.0738777
0.073027
0.0722014
0.0714092
0.0706591
0.0699601
0.0693211
0.0687513
0.0682594
0.067854
0.0675423
0.0673294
0.0672194
0.0672354
0.0673928
0.000228193
0.000366557
0.0003624
0.000234259
7.90187e-06
-0.000310386
-0.000714644
-0.00119705
-0.0017493
-0.00236287
-0.00302916
-0.00373969
-0.00448613
-0.00526045
-0.00605489
-0.0068621
-0.00767513
-0.00848735
-0.00929265
-0.0100853
-0.0108598
-0.0116114
-0.0123353
-0.0130273
-0.0136835
-0.0143002
-0.0148741
-0.0154023
-0.015882
-0.0163106
-0.016686
-0.0170062
-0.0172694
-0.0174741
-0.0176189
-0.0177027
-0.0177245
-0.0176835
-0.0175791
-0.0174109
-0.0171786
-0.016882
-0.0165212
-0.0160962
-0.0156073
-0.0150549
-0.0144395
-0.0137616
-0.0130221
-0.0122216
-0.0113612
-0.0104418
-0.00946453
-0.00843059
-0.00734124
-0.00619783
-0.00500178
-0.00375459
-0.00245784
-0.00111316
0.000277746
0.00171312
0.00319113
0.0047099
0.0062675
0.00786193
0.00949118
0.0111531
0.0128457
0.0145667
0.0163139
0.0180851
0.019878
0.0216904
0.0235198
0.0253639
0.0272203
0.0290865
0.0309602
0.0328389
0.0347201
0.0366014
0.0384802
0.0403541
0.0422206
0.0440772
0.0459214
0.0477507
0.0495627
0.0513547
0.0531246
0.0548697
0.0565876
0.0582762
0.0599329
0.0615555
0.0631416
0.0646892
0.066196
0.0676598
0.0690787
0.0704505
0.0717733
0.0730453
0.0742647
0.0754297
0.0765387
0.0775902
0.0785827
0.0795147
0.0803852
0.0811929
0.0819367
0.082616
0.0832297
0.0837772
0.0842581
0.084672
0.0850186
0.0852979
0.08551
0.0856551
0.0857337
0.0857464
0.0856938
0.0855771
0.0853975
0.0851562
0.0848551
0.0844959
0.0840807
0.0836118
0.0830917
0.0825233
0.0819096
0.0812541
0.0805603
0.0798323
0.0790742
0.0782907
0.0774867
0.0766673
0.0758383
0.0750056
0.0741756
0.0733548
0.0725503
0.0717696
0.0710202
0.07031
0.0696473
0.0690401
0.0684968
0.0680253
0.0676335
0.0673285
0.0671158
0.0670009
0.0670097
0.067161
0.000622829
0.000729191
0.000702841
0.000560793
0.000327006
8.26941e-06
-0.000389353
-0.000858416
-0.00139126
-0.00198021
-0.00261745
-0.00329529
-0.00400615
-0.00474263
-0.00549767
-0.00626442
-0.00703641
-0.00780749
-0.00857189
-0.00932415
-0.0100592
-0.0107723
-0.0114591
-0.0121154
-0.0127375
-0.0133218
-0.0138652
-0.0143648
-0.0148179
-0.015222
-0.015575
-0.0158749
-0.01612
-0.0163087
-0.0164398
-0.016512
-0.0165244
-0.0164762
-0.0163669
-0.0161958
-0.0159628
-0.0156677
-0.0153103
-0.0148909
-0.0144096
-0.0138668
-0.0132628
-0.0125984
-0.0118741
-0.0110908
-0.0102493
-0.00935049
-0.00839554
-0.00738555
-0.00632175
-0.00520542
-0.00403795
-0.00282077
-0.0015554
-0.000243441
0.00111348
0.00251365
0.00395529
0.0054366
0.00695569
0.00851063
0.0100994
0.0117201
0.0133705
0.0150485
0.0167521
0.0184791
0.0202272
0.0219943
0.0237779
0.0255758
0.0273856
0.0292051
0.0310318
0.0328633
0.0346973
0.0365314
0.0383631
0.04019
0.0420096
0.0438196
0.0456175
0.0474009
0.0491674
0.0509146
0.05264
0.0543415
0.0560165
0.0576628
0.0592782
0.0608603
0.0624071
0.0639163
0.0653858
0.0668136
0.0681975
0.0695358
0.0708265
0.0720678
0.0732579
0.0743952
0.0754781
0.0765051
0.0774748
0.078386
0.0792373
0.0800278
0.0807564
0.0814223
0.0820247
0.082563
0.0830368
0.0834457
0.0837895
0.0840682
0.0842819
0.0844308
0.0845155
0.0845365
0.0844946
0.0843908
0.0842262
0.0840024
0.083721
0.0833836
0.0829924
0.0825496
0.0820576
0.0815193
0.0809377
0.0803159
0.0796576
0.0789665
0.0782467
0.0775026
0.076739
0.0759607
0.0751732
0.0743821
0.0735933
0.0728131
0.072048
0.0713049
0.0705908
0.0699129
0.0692787
0.0686956
0.0681711
0.0677127
0.0673275
0.0670226
0.0668034
0.0666763
0.066666
0.0667902
0.00114758
0.00120507
0.00114526
0.000981103
0.000732364
0.000405791
7.36949e-06
-0.000455969
-0.000977194
-0.00154928
-0.0021652
-0.00281795
-0.00350062
-0.00420644
-0.00492893
-0.00566175
-0.00639892
-0.00713471
-0.00786369
-0.00858078
-0.00928115
-0.0099603
-0.0106141
-0.0112385
-0.0118301
-0.0123853
-0.0129012
-0.013375
-0.0138039
-0.0141857
-0.0145182
-0.0147996
-0.0150282
-0.0152023
-0.0153208
-0.0153824
-0.0153863
-0.0153317
-0.0152178
-0.0150442
-0.0148107
-0.014517
-0.0141631
-0.013749
-0.0132749
-0.0127412
-0.0121482
-0.0114965
-0.0107867
-0.0100196
-0.00919599
-0.00831678
-0.00738298
-0.00639571
-0.00535613
-0.00426549
-0.00312511
-0.0019364
-0.000700805
0.000580129
0.00190481
0.00327158
0.00467873
0.00612449
0.00760702
0.00912446
0.0106749
0.0122563
0.0138667
0.0155041
0.0171663
0.0188513
0.0205569
0.0222808
0.024021
0.0257751
0.0275408
0.0293159
0.031098
0.0328849
0.0346742
0.0364635
0.0382505
0.0400328
0.0418081
0.0435739
0.045328
0.047068
0.0487914
0.0504961
0.0521796
0.0538397
0.0554741
0.0570805
0.0586569
0.0602008
0.0617104
0.0631833
0.0646176
0.0660113
0.0673624
0.0686691
0.0699294
0.0711417
0.0723043
0.0734155
0.0744738
0.0754778
0.0764261
0.0773175
0.0781508
0.0789251
0.0796393
0.0802926
0.0808843
0.0814139
0.0818809
0.082285
0.0826261
0.082904
0.083119
0.0832714
0.0833615
0.08339
0.0833577
0.0832656
0.0831149
0.0829069
0.0826433
0.0823257
0.0819562
0.081537
0.0810704
0.0805592
0.0800062
0.0794147
0.078788
0.0781297
0.0774437
0.0767344
0.0760061
0.0752636
0.074512
0.0737565
0.0730027
0.0722565
0.0715239
0.0708113
0.0701251
0.069472
0.0688588
0.0682924
0.0677795
0.0673269
0.0669414
0.0666295
0.0663968
0.0662497
0.0662091
0.0662893
0.00178862
0.00178436
0.0016814
0.00148751
0.00121664
0.000875211
0.000469059
4.45053e-06
-0.000512191
-0.00107451
-0.00167612
-0.00231068
-0.00297192
-0.00365366
-0.00434989
-0.00505484
-0.00576295
-0.0064689
-0.00716766
-0.00785441
-0.00852465
-0.00917411
-0.00979884
-0.0103951
-0.0109595
-0.0114889
-0.0119801
-0.0124306
-0.0128378
-0.0131995
-0.0135135
-0.0137781
-0.0139916
-0.0141526
-0.0142596
-0.0143117
-0.0143078
-0.0142473
-0.0141294
-0.0139537
-0.0137199
-0.0134277
-0.0130771
-0.0126682
-0.012201
-0.011676
-0.0110934
-0.0104538
-0.0097578
-0.00900608
-0.00819944
-0.00733876
-0.00642502
-0.00545927
-0.00444264
-0.00337634
-0.00226164
-0.0010999
0.00010747
0.00135899
0.00265311
0.00398822
0.00536265
0.0067747
0.00822258
0.00970446
0.0112185
0.0127627
0.0143352
0.0159339
0.0175569
0.0192021
0.0208674
0.0225506
0.0242496
0.0259622
0.0276861
0.0294191
0.031159
0.0329036
0.0346505
0.0363974
0.0381421
0.0398822
0.0416155
0.0433396
0.0450522
0.0467511
0.0484339
0.0500984
0.0517422
0.0533633
0.0549593
0.0565281
0.0580676
0.0595756
0.0610499
0.0624887
0.0638898
0.0652514
0.0665715
0.0678484
0.0690801
0.0702652
0.0714018
0.0724884
0.0735236
0.0745059
0.0754341
0.0763069
0.0771233
0.0778823
0.0785829
0.0792244
0.079806
0.0803273
0.0807879
0.0811873
0.0815256
0.0818027
0.0820187
0.082174
0.082269
0.0823042
0.0822806
0.0821991
0.0820608
0.0818671
0.0816195
0.0813198
0.0809698
0.0805717
0.0801278
0.0796408
0.0791134
0.0785487
0.0779498
0.0773204
0.0766642
0.0759851
0.0752875
0.0745757
0.0738546
0.0731292
0.0724045
0.0716862
0.0709798
0.0702912
0.0696263
0.0689912
0.0683922
0.0678356
0.0673275
0.0668741
0.0664816
0.0661561
0.0659029
0.0657282
0.0656479
0.0656712
0.00253143
0.00245587
0.00230194
0.00207154
0.00177205
0.00140944
0.000989209
0.000517005
-1.43701e-06
-0.000560378
-0.00115404
-0.0017767
-0.00242267
-0.00308628
-0.00376206
-0.00444472
-0.0051291
-0.0058103
-0.00648363
-0.0071446
-0.00778898
-0.00841276
-0.0090122
-0.00958385
-0.0101244
-0.0106307
-0.0111001
-0.0115299
-0.0119176
-0.0122613
-0.0125587
-0.0128082
-0.0130082
-0.0131572
-0.013254
-0.0132974
-0.0132867
-0.0132209
-0.0130995
-0.012922
-0.0126881
-0.0123975
-0.0120502
-0.0116463
-0.0111858
-0.010669
-0.0100963
-0.00946824
-0.00878531
-0.0080482
-0.00725766
-0.00641455
-0.00551981
-0.00457445
-0.00357956
-0.00253631
-0.00144593
-0.000309728
0.000870915
0.00209457
0.00335974
0.00466485
0.00600829
0.0073884
0.00880344
0.0102516
0.0117312
0.0132402
0.0147767
0.0163389
0.0179248
0.0195323
0.0211593
0.0228039
0.0244639
0.0261372
0.0278215
0.0295148
0.0312148
0.0329193
0.034626
0.0363329
0.0380376
0.0397378
0.0414314
0.0431161
0.0447895
0.0464496
0.048094
0.0497205
0.051327
0.0529112
0.054471
0.0560044
0.0575091
0.0589831
0.0604243
0.0618309
0.0632008
0.0645321
0.0658231
0.0670718
0.0682767
0.0694361
0.0705483
0.0716118
0.0726252
0.0735872
0.0744965
0.0753519
0.0761524
0.0768969
0.0775847
0.078215
0.0787871
0.0793005
0.0797549
0.0801499
0.0804854
0.0807615
0.0809783
0.081136
0.0812352
0.0812765
0.0812606
0.0811885
0.0810613
0.0808804
0.0806472
0.0803633
0.0800307
0.0796514
0.0792277
0.0787621
0.0782573
0.0777161
0.0771418
0.0765375
0.075907
0.075254
0.0745825
0.0738968
0.0732013
0.0725007
0.0717998
0.0711038
0.0704177
0.0697471
0.0690974
0.0684742
0.0678833
0.0673302
0.0668208
0.0663604
0.0659548
0.0656094
0.0653294
0.0651206
0.0649926
0.0649492
0.00336175
0.00320807
0.002997
0.00272448
0.00239074
0.00200127
0.00156131
0.00107582
0.00054982
-1.15087e-05
-0.000602997
-0.00121945
-0.00185572
-0.0025067
-0.00316736
-0.00383286
-0.00449847
-0.00515964
-0.00581204
-0.0064515
-0.00707406
-0.00767596
-0.00825368
-0.00880397
-0.00932369
-0.00980996
-0.0102601
-0.0106716
-0.0110422
-0.0113697
-0.0116524
-0.0118885
-0.0120764
-0.0122147
-0.0123024
-0.0123382
-0.0123213
-0.0122509
-0.0121265
-0.0119476
-0.0117138
-0.0114249
-0.0110809
-0.0106818
-0.0102277
-0.00971887
-0.00915566
-0.00853852
-0.007868
-0.00714474
-0.00636945
-0.00554298
-0.00466622
-0.00374016
-0.00276583
-0.00174438
-0.000676996
0.000435051
0.00159042
0.00278772
0.0040255
0.00530224
0.00661637
0.00796626
0.00935024
0.0107666
0.0122135
0.0136892
0.0151918
0.0167194
0.0182701
0.019842
0.0214329
0.023041
0.0246642
0.0263003
0.0279473
0.0296029
0.0312652
0.0329318
0.0346008
0.0362698
0.0379367
0.0395993
0.0412554
0.0429029
0.0445394
0.0461629
0.047771
0.0493618
0.0509331
0.0524826
0.0540084
0.0555083
0.0569803
0.0584223
0.0598324
0.0612087
0.0625492
0.0638522
0.0651157
0.0663382
0.0675178
0.0686531
0.0697424
0.0707842
0.0717772
0.0727201
0.0736116
0.0744506
0.0752362
0.0759672
0.076643
0.0772627
0.0778258
0.0783317
0.0787802
0.0791708
0.0795036
0.0797786
0.0799958
0.0801556
0.0802585
0.080305
0.0802959
0.0802321
0.0801148
0.0799452
0.0797246
0.0794548
0.0791375
0.0787748
0.0783689
0.077922
0.0774369
0.0769162
0.076363
0.0757804
0.0751719
0.074541
0.0738915
0.0732273
0.0725528
0.0718722
0.07119
0.070511
0.06984
0.0691819
0.0685419
0.067925
0.0673364
0.0667813
0.0662648
0.0657919
0.0653676
0.0649968
0.0646845
0.0644359
0.064254
0.064137
0.00426616
0.00402965
0.0037568
0.00343754
0.00306478
0.00264357
0.00217889
0.00167502
0.00113636
0.000567456
-2.70203e-05
-0.000642431
-0.00127409
-0.00191743
-0.00256784
-0.00322093
-0.00387234
-0.00451789
-0.00515355
-0.00577549
-0.00638002
-0.00696362
-0.00752302
-0.00805509
-0.00855695
-0.00902586
-0.00945926
-0.00985481
-0.0102103
-0.0105238
-0.0107935
-0.0110177
-0.011195
-0.011324
-0.0114035
-0.0114326
-0.0114103
-0.011336
-0.0112091
-0.0110291
-0.0107957
-0.0105087
-0.0101679
-0.00977355
-0.00932562
-0.00882438
-0.00827018
-0.00766345
-0.0070047
-0.00629456
-0.00553372
-0.00472299
-0.00386322
-0.00295538
-0.00200048
-0.000999615
4.60495e-05
0.00113529
0.00226679
0.00343921
0.00465113
0.00590108
0.00718753
0.0085089
0.00986355
0.0112498
0.0126659
0.0141102
0.0155807
0.0170757
0.0185932
0.0201315
0.0216884
0.0232621
0.0248505
0.0264516
0.0280633
0.0296835
0.0313102
0.0329412
0.0345744
0.0362078
0.0378391
0.0394663
0.0410872
0.0426996
0.0443014
0.0458904
0.0474645
0.0490217
0.0505598
0.0520768
0.0535706
0.0550391
0.0564803
0.0578924
0.0592733
0.0606211
0.0619341
0.0632104
0.0644483
0.065646
0.066802
0.0679147
0.0689826
0.0700041
0.070978
0.071903
0.0727779
0.0736016
0.0743731
0.0750915
0.0757559
0.0763657
0.0769203
0.0774192
0.0778619
0.0782484
0.0785785
0.0788522
0.0790696
0.079231
0.0793369
0.0793879
0.0793847
0.0793282
0.0792195
0.0790598
0.0788503
0.0785928
0.078289
0.0779407
0.0775501
0.0771195
0.0766514
0.0761482
0.075613
0.0750488
0.0744587
0.0738461
0.0732146
0.0725679
0.0719099
0.0712448
0.0705767
0.06991
0.0692491
0.0685986
0.0679631
0.0673473
0.066756
0.0661938
0.0656651
0.0651747
0.0647268
0.0643258
0.0639764
0.0636834
0.0634429
0.0632473
0.00523231
0.00490989
0.00457182
0.0042021
0.00378641
0.00332929
0.00283559
0.00230888
0.00175299
0.00117191
0.000569793
-4.92005e-05
-0.000680888
-0.00132112
-0.00196575
-0.00261077
-0.00325219
-0.00388618
-0.00450901
-0.00511714
-0.00570719
-0.00627584
-0.00682007
-0.00733693
-0.00782371
-0.00827784
-0.00869695
-0.00907878
-0.0094213
-0.0097226
-0.009981
-0.0101949
-0.0103629
-0.0104837
-0.0105562
-0.0105794
-0.0105526
-0.010475
-0.0103461
-0.0101654
-0.00993256
-0.00964748
-0.00931005
-0.00892028
-0.0084783
-0.00798434
-0.00743874
-0.0068419
-0.00619432
-0.00549659
-0.00474941
-0.00395354
-0.00310982
-0.00221917
-0.00128258
-0.000301125
0.000724068
0.00179181
0.00290082
0.00404979
0.00523734
0.00646204
0.00772241
0.0090169
0.0103439
0.0117018
0.0130889
0.0145036
0.0159439
0.0174082
0.0188945
0.020401
0.0219259
0.0234672
0.0250229
0.026591
0.0281695
0.0297564
0.0313496
0.032947
0.0345467
0.0361466
0.0377445
0.0393384
0.0409262
0.0425057
0.0440748
0.0456315
0.0471738
0.0486994
0.0502065
0.0516929
0.0531567
0.0545958
0.0560083
0.0573922
0.0587458
0.0600671
0.0613543
0.0626057
0.0638195
0.0649942
0.0661281
0.0672197
0.0682675
0.0692701
0.0702262
0.0711345
0.0719939
0.0728033
0.0735617
0.0742682
0.074922
0.0755225
0.076069
0.0765612
0.0769986
0.077381
0.0777083
0.0779806
0.0781979
0.0783606
0.078469
0.0785238
0.0785256
0.0784754
0.0783741
0.0782228
0.078023
0.0777761
0.0774838
0.077148
0.0767706
0.0763538
0.0759
0.0754117
0.0748916
0.0743425
0.0737674
0.0731696
0.0725524
0.0719193
0.0712739
0.0706201
0.0699618
0.0693029
0.0686476
0.068
0.0673645
0.0667453
0.0661466
0.0655725
0.0650272
0.0645148
0.064039
0.0636036
0.0632132
0.0628722
0.0625695
0.0622919
0.00624886
0.00583865
0.00543298
0.00500998
0.00454812
0.00405163
0.00352516
0.00297175
0.00239463
0.00179729
0.00118339
0.000556629
-7.92625e-05
-0.000720523
-0.00136343
-0.00200434
-0.00263965
-0.00326582
-0.00387943
-0.00447724
-0.00505609
-0.00561297
-0.00614497
-0.00664943
-0.00712376
-0.00756558
-0.00797268
-0.00834291
-0.00867439
-0.00896529
-0.009214
-0.00941904
-0.00957906
-0.00969287
-0.0097594
-0.00977773
-0.00974707
-0.00966679
-0.00953631
-0.00935524
-0.00912329
-0.00884029
-0.00850615
-0.0081209
-0.00768468
-0.0071977
-0.00666028
-0.00607282
-0.00543581
-0.00474983
-0.00401554
-0.00323368
-0.00240507
-0.00153061
-0.000611266
0.000351926
0.00135786
0.00240537
0.00349323
0.00462014
0.00578478
0.00698574
0.00822159
0.0094908
0.0107918
0.0121231
0.013483
0.0148697
0.0162817
0.0177171
0.0191741
0.0206509
0.0221456
0.0236564
0.0251814
0.0267185
0.0282659
0.0298215
0.0313833
0.0329493
0.0345176
0.036086
0.0376526
0.0392153
0.040772
0.0423207
0.0438593
0.0453858
0.0468981
0.0483943
0.0498723
0.0513302
0.0527659
0.0541775
0.0555632
0.0569209
0.058249
0.0595455
0.0608086
0.0620368
0.0632283
0.0643815
0.0654948
0.0665668
0.067596
0.0685809
0.0695204
0.0704131
0.071258
0.0720541
0.0728003
0.0734957
0.0741397
0.0747314
0.0752704
0.0757562
0.0761884
0.0765669
0.0768916
0.0771623
0.0773793
0.0775428
0.0776532
0.0777111
0.0777171
0.0776722
0.0775771
0.0774331
0.0772415
0.0770036
0.0767211
0.0763957
0.0760294
0.0756242
0.0751823
0.0747062
0.0741983
0.0736614
0.0730983
0.0725119
0.0719056
0.0712824
0.0706459
0.0699996
0.0693471
0.068692
0.0680381
0.0673894
0.0667496
0.0661226
0.0655123
0.0649223
0.0643564
0.0638181
0.0633108
0.0628375
0.0624028
0.0620108
0.0616434
0.0612817
0.00730553
0.00680659
0.00633175
0.00585335
0.00534272
0.00480398
0.00424161
0.00365814
0.00305628
0.00243909
0.00180973
0.00117147
0.00052762
-0.000118418
-0.000763318
-0.00140375
-0.00203648
-0.00265829
-0.00326603
-0.00385671
-0.00442743
-0.00497544
-0.00549803
-0.00599269
-0.00645706
-0.00688892
-0.00728615
-0.00764682
-0.00796908
-0.0082513
-0.00849189
-0.00868947
-0.00884281
-0.00895074
-0.00901226
-0.00902651
-0.00899276
-0.00891036
-0.00877882
-0.00859775
-0.00836689
-0.00808608
-0.00775524
-0.00737443
-0.00694376
-0.00646347
-0.00593383
-0.00535527
-0.00472825
-0.00405335
-0.00333119
-0.00256252
-0.00174813
-0.000888884
1.42599e-05
0.000960305
0.00194816
0.00297668
0.00404468
0.00515091
0.00629405
0.00747276
0.0086856
0.00993111
0.0112078
0.0125141
0.0138484
0.015209
0.0165944
0.0180027
0.0194322
0.0208811
0.0223476
0.0238299
0.0253261
0.0268342
0.0283524
0.0298787
0.0314112
0.0329478
0.0344866
0.0360257
0.037563
0.0390965
0.0406242
0.0421441
0.0436542
0.0451525
0.046637
0.0481057
0.0495566
0.0509878
0.0523974
0.0537835
0.0551441
0.0564775
0.0577818
0.0590553
0.0602961
0.0615027
0.0626735
0.0638067
0.064901
0.0659547
0.0669665
0.0679351
0.0688591
0.0697375
0.070569
0.0713527
0.0720875
0.0727726
0.0734073
0.0739909
0.0745229
0.0750027
0.0754301
0.0758048
0.0761267
0.0763958
0.0766122
0.0767762
0.0768881
0.0769485
0.0769579
0.0769173
0.0768275
0.0766895
0.0765047
0.0762743
0.076
0.0756833
0.075326
0.0749302
0.074498
0.0740316
0.0735333
0.0730058
0.0724516
0.0718737
0.0712749
0.0706584
0.0700273
0.0693849
0.0687345
0.0680795
0.0674234
0.0667696
0.0661218
0.0654833
0.0648576
0.0642481
0.063658
0.0630906
0.0625485
0.0620344
0.0615527
0.0611074
0.0606735
0.0602266
0.00839306
0.00780508
0.00726013
0.00672477
0.00616339
0.00558001
0.00497912
0.00436274
0.00373313
0.00309287
0.00244477
0.00179168
0.00113652
0.000482327
-0.000167907
-0.000811173
-0.00144457
-0.00206517
-0.00267011
-0.00325664
-0.00382211
-0.00436393
-0.0048797
-0.00536705
-0.00582377
-0.00624783
-0.00663726
-0.00699026
-0.00730508
-0.0075802
-0.00781416
-0.00800565
-0.00815349
-0.0082566
-0.00831405
-0.00832504
-0.00828886
-0.00820492
-0.00807276
-0.00789204
-0.00766249
-0.00738398
-0.00705646
-0.00667998
-0.00625467
-0.00578075
-0.00525852
-0.00468837
-0.00407079
-0.00340631
-0.00269557
-0.00193928
-0.00113822
-0.000293246
0.000594719
0.00152469
0.00249561
0.00350636
0.00455578
0.00564265
0.0067657
0.00792357
0.0091149
0.0103383
0.0115922
0.0128751
0.0141855
0.0155217
0.0168822
0.0182652
0.019669
0.0210919
0.022532
0.0239877
0.025457
0.0269381
0.028429
0.029928
0.0314331
0.0329423
0.0344537
0.0359654
0.0374754
0.0389817
0.0404824
0.0419755
0.0434591
0.0449312
0.0463898
0.0478329
0.0492586
0.0506651
0.0520505
0.0534129
0.0547503
0.0560611
0.0573434
0.0585955
0.0598157
0.0610024
0.0621539
0.0632687
0.0643453
0.0653822
0.066378
0.0673315
0.0682413
0.0691063
0.0699254
0.0706976
0.071422
0.0720976
0.0727237
0.0732997
0.0738251
0.0742993
0.0747221
0.0750932
0.0754124
0.0756798
0.0758955
0.0760596
0.0761725
0.0762348
0.0762469
0.0762097
0.0761241
0.0759911
0.0758118
0.0755875
0.0753197
0.0750099
0.0746599
0.0742715
0.0738467
0.0733877
0.0728965
0.0723758
0.0718279
0.0712555
0.0706614
0.0700484
0.0694195
0.0687777
0.0681261
0.0674678
0.0668059
0.0661437
0.0654844
0.064831
0.0641867
0.0635544
0.0629372
0.0623376
0.0617581
0.0612008
0.06067
0.0601697
0.0596682
0.0591357
0.00950302
0.00882625
0.00821064
0.00761725
0.00700362
0.0063737
0.0057321
0.00508041
0.0044204
0.00375432
0.00308458
0.0024137
0.00174423
0.00107885
0.000420254
-0.000228865
-0.000865879
-0.00148816
-0.00209311
-0.00267823
-0.00324107
-0.00377926
-0.0042906
-0.00477292
-0.00522419
-0.0056425
-0.00602605
-0.00637314
-0.0066822
-0.00695174
-0.00718044
-0.0073671
-0.00751058
-0.00760989
-0.00766417
-0.00767267
-0.0076347
-0.00754976
-0.00741741
-0.00723734
-0.00700931
-0.0067332
-0.006409
-0.00603676
-0.00561661
-0.00514877
-0.00463356
-0.00407137
-0.00346266
-0.00280797
-0.00210794
-0.00136325
-0.000574671
0.000256957
0.00113074
0.0020457
0.0030008
0.00399497
0.00502707
0.00609588
0.00720017
0.00833863
0.00950991
0.0107126
0.0119453
0.0132065
0.0144946
0.0158081
0.0171454
0.0185048
0.0198847
0.0212833
0.0226989
0.0241298
0.0255741
0.02703
0.0284956
0.0299692
0.0314488
0.0329326
0.0344185
0.0359048
0.0373894
0.0388706
0.0403463
0.0418146
0.0432736
0.0447213
0.0461559
0.0475753
0.0489778
0.0503615
0.0517245
0.0530649
0.0543809
0.0556709
0.0569329
0.0581654
0.0593665
0.0605348
0.0616687
0.0627665
0.0638268
0.0648482
0.0658294
0.0667689
0.0676656
0.0685184
0.0693261
0.0700878
0.0708025
0.0714693
0.0720876
0.0726566
0.0731758
0.0736448
0.0740633
0.0744309
0.0747475
0.0750131
0.0752278
0.0753918
0.0755053
0.0755689
0.075583
0.0755485
0.0754662
0.075337
0.075162
0.0749425
0.0746797
0.0743752
0.0740307
0.0736478
0.0732284
0.0727745
0.0722882
0.0717718
0.0712277
0.0706582
0.070066
0.0694537
0.0688241
0.0681799
0.067524
0.0668592
0.0661885
0.0655147
0.0648408
0.0641695
0.0635036
0.0628458
0.0621986
0.0615645
0.0609453
0.0603427
0.0597613
0.0592048
0.0586351
0.0580169
0.0106278
0.00986281
0.0091764
0.00852427
0.00785724
0.00717933
0.00649523
0.00580617
0.00511353
0.00441921
0.00372531
0.00303401
0.00234756
0.0016683
0.000998608
0.000340909
-0.000302422
-0.00092903
-0.00153658
-0.00212279
-0.0026854
-0.00322232
-0.00373147
-0.00421089
-0.00465873
-0.0050732
-0.00545268
-0.00579554
-0.00610036
-0.00636577
-0.00659054
-0.00677354
-0.00691372
-0.0070102
-0.00706215
-0.00706885
-0.00702972
-0.00694429
-0.00681216
-0.00663302
-0.0064067
-0.00613309
-0.00581221
-0.0054441
-0.0050289
-0.00456687
-0.00405831
-0.0035036
-0.00290323
-0.00225771
-0.00156769
-0.000833834
-5.69004e-05
0.000762293
0.00162286
0.00252384
0.00346424
0.00444299
0.00545897
0.006511
0.00759787
0.0087183
0.00987096
0.0110545
0.0122675
0.0135084
0.0147759
0.0160683
0.0173841
0.0187217
0.0200793
0.0214555
0.0228483
0.0242562
0.0256773
0.0271099
0.0285521
0.0300022
0.0314582
0.0329184
0.0343808
0.0358436
0.0373048
0.0387627
0.0402153
0.0416607
0.043097
0.0445224
0.0459348
0.0473325
0.0487136
0.0500762
0.0514185
0.0527388
0.0540352
0.055306
0.0565495
0.0577639
0.0589476
0.0600991
0.0612167
0.062299
0.0633445
0.0643518
0.0653194
0.0662463
0.067131
0.0679726
0.06877
0.069522
0.0702279
0.0708867
0.0714977
0.0720603
0.072574
0.0730381
0.0734525
0.0738168
0.0741309
0.0743947
0.0746083
0.0747718
0.0748855
0.0749499
0.0749655
0.0749329
0.074853
0.0747266
0.0745548
0.0743387
0.0740796
0.073779
0.0734382
0.073059
0.0726431
0.0721924
0.0717088
0.0711945
0.0706518
0.0700828
0.0694899
0.0688757
0.0682426
0.0675933
0.0669303
0.0662563
0.0655738
0.0648857
0.0641943
0.0635024
0.0628124
0.0621266
0.0614472
0.0607763
0.0601155
0.0594662
0.0588329
0.0582194
0.0575813
0.0568779
0.0117604
0.010908
0.010151
0.00943968
0.00871847
0.00799144
0.00726338
0.00653524
0.00580807
0.00508346
0.00436319
0.00364917
0.00294336
0.00224778
0.00156455
0.000895826
0.000243728
-0.000389618
-0.00100211
-0.0015917
-0.00215635
-0.00269413
-0.00320318
-0.00368169
-0.00412796
-0.0045404
-0.00491742
-0.00525764
-0.00555966
-0.00582228
-0.00604434
-0.00622479
-0.0063627
-0.00645724
-0.00650763
-0.00651322
-0.00647351
-0.00638806
-0.0062565
-0.00607858
-0.00585414
-0.00558312
-0.00526553
-0.00490143
-0.004491
-0.00403448
-0.00353218
-0.00298451
-0.00239193
-0.00175499
-0.00107429
-0.000350513
0.0004156
0.00122325
0.00207156
0.0029596
0.00388637
0.00485084
0.0058519
0.0068884