/*--------------------------------*- C++ -*----------------------------------*\
  =========                 |
  \\      /  F ield         | OpenFOAM: The Open Source CFD Toolbox
   \\    /   O peration     | Website:  https://openfoam.org
    \\  /    A nd           | Version:  7
     \\/     M anipulation  |
\*---------------------------------------------------------------------------*/
FoamFile
{
    version     2.0;
    format      ascii;
    class       surfaceScalarField;
    location    "0.1875";
    object      phi;
}
// * * * * * * * * * * * * * * * * * * * * * * * * * * * * * * * * * * * * * //

dimensions      [0 3 -1 0 0 0 0];

internalField   nonuniform List<scalar> 
50880
(
6.09941e-12
-6.09787e-12
3.61715e-11
-3.00671e-11
8.09478e-11
-4.47781e-11
1.30433e-10
-4.94842e-11
1.77492e-10
-4.70602e-11
2.17153e-10
-3.96627e-11
2.45996e-10
-2.88446e-11
2.61709e-10
-1.57182e-11
2.6278e-10
-1.07031e-12
2.48244e-10
1.45375e-11
2.1754e-10
3.07003e-11
1.70417e-10
4.71244e-11
1.06838e-10
6.35798e-11
2.69402e-11
7.99003e-11
-6.90154e-11
9.59537e-11
-1.80663e-10
1.11644e-10
-3.07558e-10
1.26892e-10
-4.49202e-10
1.41637e-10
-6.05036e-10
1.55834e-10
-7.74484e-10
1.69445e-10
-9.56923e-10
1.82439e-10
-1.15172e-09
1.94798e-10
-1.35823e-09
2.06506e-10
-1.57578e-09
2.17553e-10
-1.80371e-09
2.27931e-10
-2.04134e-09
2.37635e-10
-2.288e-09
2.4666e-10
-2.54301e-09
2.55013e-10
-2.80571e-09
2.62694e-10
-3.07542e-09
2.6971e-10
-3.35148e-09
2.76061e-10
-3.63324e-09
2.81759e-10
-3.92004e-09
2.86803e-10
-4.21125e-09
2.9121e-10
-4.50624e-09
2.94986e-10
-4.80438e-09
2.98138e-10
-5.10506e-09
3.00681e-10
-5.40768e-09
3.02623e-10
-5.71165e-09
3.03973e-10
-6.0164e-09
3.04743e-10
-6.32135e-09
3.0495e-10
-6.62595e-09
3.04603e-10
-6.92966e-09
3.03713e-10
-7.23195e-09
3.0229e-10
-7.53229e-09
3.00349e-10
-7.8302e-09
2.97902e-10
-8.12516e-09
2.94962e-10
-8.41671e-09
2.91543e-10
-8.70436e-09
2.87657e-10
-8.98768e-09
2.83316e-10
-9.26621e-09
2.78532e-10
-9.53953e-09
2.7332e-10
-9.80723e-09
2.67693e-10
-1.00689e-08
2.61664e-10
-1.03241e-08
2.55245e-10
-1.05726e-08
2.48451e-10
-1.08139e-08
2.41292e-10
-1.10477e-08
2.33784e-10
-1.12736e-08
2.25941e-10
-1.14914e-08
2.17774e-10
-1.17007e-08
2.09296e-10
-1.19012e-08
2.00522e-10
-1.20927e-08
1.91464e-10
-1.22748e-08
1.82135e-10
-1.24473e-08
1.72551e-10
-1.26101e-08
1.62726e-10
-1.27627e-08
1.52671e-10
-1.29051e-08
1.42401e-10
-1.30371e-08
1.3193e-10
-1.31583e-08
1.21271e-10
-1.32688e-08
1.10439e-10
-1.33682e-08
9.94475e-11
-1.34565e-08
8.83099e-11
-1.35336e-08
7.70411e-11
-1.35992e-08
6.56566e-11
-1.36534e-08
5.41713e-11
-1.3696e-08
4.26005e-11
-1.3727e-08
3.09585e-11
-1.37462e-08
1.92588e-11
-1.37537e-08
7.51566e-12
-1.37495e-08
-4.25491e-12
-1.37334e-08
-1.60369e-11
-1.37056e-08
-2.78149e-11
-1.36661e-08
-3.95727e-11
-1.36148e-08
-5.12939e-11
-1.35518e-08
-6.29627e-11
-1.34772e-08
-7.45648e-11
-1.33911e-08
-8.60851e-11
-1.32936e-08
-9.75056e-11
-1.31848e-08
-1.08808e-10
-1.30649e-08
-1.19976e-10
-1.29339e-08
-1.30995e-10
-1.2792e-08
-1.41848e-10
-1.26395e-08
-1.52518e-10
-1.24765e-08
-1.62988e-10
-1.23033e-08
-1.73239e-10
-1.212e-08
-1.83256e-10
-1.1927e-08
-1.93023e-10
-1.17245e-08
-2.02522e-10
-1.15127e-08
-2.11736e-10
-1.12921e-08
-2.20647e-10
-1.10629e-08
-2.29236e-10
-1.08254e-08
-2.37488e-10
-1.058e-08
-2.45386e-10
-1.03271e-08
-2.52915e-10
-1.0067e-08
-2.60057e-10
-9.80021e-09
-2.66796e-10
-9.5271e-09
-2.73115e-10
-9.2481e-09
-2.78999e-10
-8.96367e-09
-2.8443e-10
-8.67428e-09
-2.89393e-10
-8.3804e-09
-2.93872e-10
-8.08255e-09
-2.97855e-10
-7.78122e-09
-3.01326e-10
-7.47695e-09
-3.04269e-10
-7.17028e-09
-3.0667e-10
-6.86177e-09
-3.08517e-10
-6.55197e-09
-3.09796e-10
-6.24148e-09
-3.10495e-10
-5.93088e-09
-3.10601e-10
-5.62078e-09
-3.10103e-10
-5.31179e-09
-3.08991e-10
-5.00453e-09
-3.07254e-10
-4.69965e-09
-3.04883e-10
-4.39778e-09
-3.01871e-10
-4.09957e-09
-2.98208e-10
-3.80568e-09
-2.93887e-10
-3.51678e-09
-2.88903e-10
-3.23352e-09
-2.83251e-10
-2.9566e-09
-2.76929e-10
-2.68666e-09
-2.69932e-10
-2.4244e-09
-2.62261e-10
-2.17049e-09
-2.53914e-10
-1.92559e-09
-2.44897e-10
-1.69039e-09
-2.3521e-10
-1.46553e-09
-2.24859e-10
-1.25167e-09
-2.13853e-10
-1.04947e-09
-2.02204e-10
-8.59541e-10
-1.89928e-10
-6.82496e-10
-1.77044e-10
-5.1892e-10
-1.63575e-10
-3.6937e-10
-1.49549e-10
-2.34367e-10
-1.35003e-10
-1.14384e-10
-1.19982e-10
-9.84177e-12
-1.0454e-10
7.89076e-11
-8.8747e-11
1.51597e-10
-7.26881e-11
2.08066e-10
-5.64701e-11
2.48295e-10
-4.02297e-11
2.72439e-10
-2.41434e-11
2.80881e-10
-8.44089e-12
2.74306e-10
6.57509e-12
2.53807e-10
2.04987e-11
2.21033e-10
3.27742e-11
1.78409e-10
4.26251e-11
1.29445e-10
4.89639e-11
7.91449e-11
5.02999e-11
3.45614e-11
4.45822e-11
5.34133e-12
2.92199e-11
5.34154e-12
3.00914e-11
-3.61947e-11
1.0104e-10
-1.01011e-10
1.95003e-10
-1.38731e-10
2.94938e-10
-1.49425e-10
3.86508e-10
-1.38626e-10
4.5848e-10
-1.11633e-10
5.02412e-10
-7.27757e-11
5.12134e-10
-2.54378e-11
4.83263e-10
2.7798e-11
4.12819e-10
8.49843e-11
2.98883e-10
1.44637e-10
1.40381e-10
2.05623e-10
-6.31165e-11
2.67075e-10
-3.11526e-10
3.28308e-10
-6.04364e-10
3.88795e-10
-9.40833e-10
4.48118e-10
-1.31988e-09
5.05944e-10
-1.74026e-09
5.62017e-10
-2.20056e-09
6.16133e-10
-2.69923e-09
6.68122e-10
-3.23466e-09
7.17864e-10
-3.80511e-09
7.65256e-10
-4.40883e-09
8.1022e-10
-5.04399e-09
8.52707e-10
-5.70873e-09
8.92672e-10
-6.40119e-09
9.3009e-10
-7.11947e-09
9.64943e-10
-7.86169e-09
9.9723e-10
-8.62594e-09
1.02694e-09
-9.41033e-09
1.0541e-09
-1.0213e-08
1.07872e-09
-1.10321e-08
1.10081e-09
-1.18657e-08
1.12041e-09
-1.2712e-08
1.13753e-09
-1.35692e-08
1.15221e-09
-1.44355e-08
1.16448e-09
-1.53092e-08
1.17438e-09
-1.61886e-08
1.18195e-09
-1.70718e-08
1.18723e-09
-1.79573e-08
1.19026e-09
-1.88434e-08
1.19108e-09
-1.97286e-08
1.18974e-09
-2.06112e-08
1.18629e-09
-2.14897e-08
1.18077e-09
-2.23625e-08
1.17323e-09
-2.32284e-08
1.16371e-09
-2.40857e-08
1.15227e-09
-2.49331e-08
1.13895e-09
-2.57692e-08
1.1238e-09
-2.65928e-08
1.10687e-09
-2.74024e-08
1.08822e-09
-2.8197e-08
1.06788e-09
-2.89752e-08
1.04592e-09
-2.9736e-08
1.02238e-09
-3.0478e-08
9.97322e-10
-3.12004e-08
9.70786e-10
-3.19019e-08
9.42829e-10
-3.25816e-08
9.135e-10
-3.32385e-08
8.82851e-10
-3.38717e-08
8.50935e-10
-3.44802e-08
8.17805e-10
-3.50632e-08
7.83512e-10
-3.56198e-08
7.48108e-10
-3.61493e-08
7.11648e-10
-3.6651e-08
6.74182e-10
-3.7124e-08
6.35766e-10
-3.75678e-08
5.96453e-10
-3.79817e-08
5.56297e-10
-3.83651e-08
5.15351e-10
-3.87175e-08
4.73673e-10
-3.90384e-08
4.31316e-10
-3.93273e-08
3.88339e-10
-3.95838e-08
3.44795e-10
-3.98075e-08
3.00741e-10
-3.9998e-08
2.56233e-10
-4.01552e-08
2.11328e-10
-4.02787e-08
1.66084e-10
-4.03683e-08
1.20562e-10
-4.04239e-08
7.482e-11
-4.04453e-08
2.89169e-11
-4.04324e-08
-1.7088e-11
-4.03853e-08
-6.31343e-11
-4.0304e-08
-1.09162e-10
-4.01884e-08
-1.5511e-10
-4.00388e-08
-2.00914e-10
-3.98553e-08
-2.46513e-10
-3.9638e-08
-2.91842e-10
-3.93872e-08
-3.36839e-10
-3.91033e-08
-3.81443e-10
-3.87865e-08
-4.25586e-10
-3.84373e-08
-4.69203e-10
-3.80561e-08
-5.1223e-10
-3.76433e-08
-5.54601e-10
-3.71996e-08
-5.96252e-10
-3.67254e-08
-6.37116e-10
-3.62215e-08
-6.77126e-10
-3.56886e-08
-7.16215e-10
-3.51273e-08
-7.54316e-10
-3.45385e-08
-7.91364e-10
-3.39229e-08
-8.27294e-10
-3.32815e-08
-8.62039e-10
-3.26152e-08
-8.95529e-10
-3.1925e-08
-9.277e-10
-3.12119e-08
-9.58487e-10
-3.0477e-08
-9.87825e-10
-2.97214e-08
-1.01565e-09
-2.89463e-08
-1.0419e-09
-2.81529e-08
-1.06651e-09
-2.73425e-08
-1.08941e-09
-2.65164e-08
-1.11055e-09
-2.56759e-08
-1.12987e-09
-2.48225e-08
-1.1473e-09
-2.39575e-08
-1.16279e-09
-2.30826e-08
-1.17627e-09
-2.21992e-08
-1.18771e-09
-2.13088e-08
-1.19704e-09
-2.04131e-08
-1.20421e-09
-1.95137e-08
-1.20917e-09
-1.86123e-08
-1.21187e-09
-1.77107e-08
-1.21228e-09
-1.68104e-08
-1.21034e-09
-1.59134e-08
-1.20602e-09
-1.50214e-08
-1.19927e-09
-1.41362e-08
-1.19007e-09
-1.32597e-08
-1.17839e-09
-1.23937e-08
-1.16418e-09
-1.15402e-08
-1.14744e-09
-1.07009e-08
-1.12814e-09
-9.8779e-09
-1.10627e-09
-9.07301e-09
-1.08182e-09
-8.28817e-09
-1.05477e-09
-7.52528e-09
-1.02514e-09
-6.78627e-09
-9.92933e-10
-6.07301e-09
-9.58154e-10
-5.38738e-09
-9.2083e-10
-4.73125e-09
-8.80992e-10
-4.10642e-09
-8.38682e-10
-3.51466e-09
-7.93954e-10
-2.95772e-09
-7.46877e-10
-2.43723e-09
-6.97536e-10
-1.95476e-09
-6.46037e-10
-1.51181e-09
-5.92507e-10
-1.10971e-09
-5.37105e-10
-7.4967e-10
-4.80022e-10
-4.32717e-10
-4.21493e-10
-1.59657e-10
-3.61808e-10
6.89778e-11
-3.01324e-10
2.52988e-10
-2.40481e-10
3.9259e-10
-1.79833e-10
4.88524e-10
-1.20078e-10
5.42189e-10
-6.21045e-11
5.55817e-10
-7.05224e-12
5.3271e-10
4.36062e-11
4.77539e-10
8.79468e-11
3.96716e-10
1.23448e-10
2.98844e-10
1.46835e-10
1.95161e-10
1.53982e-10
9.97898e-11
1.39953e-10
2.91806e-11
9.98291e-11
3.45208e-11
4.47555e-11
-8.09482e-11
1.38786e-10
-1.95054e-10
2.55625e-10
-2.5557e-10
3.73665e-10
-2.67468e-10
4.74653e-10
-2.3961e-10
5.43731e-10
-1.80709e-10
5.69213e-10
-9.82571e-11
5.42165e-10
1.6068e-12
4.55973e-10
1.1399e-10
3.05909e-10
2.35046e-10
8.87945e-11
3.6175e-10
-1.97307e-10
4.9173e-10
-5.53342e-10
6.23107e-10
-9.7944e-10
7.54405e-10
-1.47509e-09
8.84443e-10
-2.03926e-09
1.01228e-09
-2.67047e-09
1.13716e-09
-3.36694e-09
1.25848e-09
-4.12658e-09
1.37577e-09
-4.94708e-09
1.48863e-09
-5.82597e-09
1.59675e-09
-6.76061e-09
1.6999e-09
-7.74828e-09
1.79789e-09
-8.78613e-09
1.89056e-09
-9.87129e-09
1.97783e-09
-1.10008e-08
2.0596e-09
-1.21717e-08
2.13583e-09
-1.3381e-08
2.2065e-09
-1.46256e-08
2.27159e-09
-1.59026e-08
2.33112e-09
-1.7209e-08
2.38511e-09
-1.85418e-08
2.43358e-09
-1.9898e-08
2.4766e-09
-2.12747e-08
2.51421e-09
-2.26689e-08
2.54646e-09
-2.40779e-08
2.57344e-09
-2.54987e-08
2.59522e-09
-2.69286e-08
2.61187e-09
-2.83649e-08
2.62349e-09
-2.98048e-08
2.63016e-09
-3.12457e-08
2.63197e-09
-3.26849e-08
2.62902e-09
-3.412e-08
2.6214e-09
-3.55485e-08
2.60922e-09
-3.69679e-08
2.59258e-09
-3.83757e-08
2.57158e-09
-3.97698e-08
2.54633e-09
-4.11478e-08
2.51693e-09
-4.25074e-08
2.48349e-09
-4.38467e-08
2.44611e-09
-4.51634e-08
2.40492e-09
-4.64555e-08
2.36001e-09
-4.77211e-08
2.31151e-09
-4.89582e-08
2.25951e-09
-5.01651e-08
2.20414e-09
-5.13398e-08
2.14551e-09
-5.24807e-08
2.08373e-09
-5.35861e-08
2.01891e-09
-5.46544e-08
1.95118e-09
-5.56841e-08
1.88063e-09
-5.66737e-08
1.8074e-09
-5.76218e-08
1.73158e-09
-5.8527e-08
1.65331e-09
-5.9388e-08
1.57271e-09
-6.02037e-08
1.48987e-09
-6.09729e-08
1.40494e-09
-6.16945e-08
1.31801e-09
-6.23674e-08
1.22923e-09
-6.29907e-08
1.13869e-09
-6.35636e-08
1.04654e-09
-6.40852e-08
9.52881e-10
-6.45547e-08
8.57849e-10
-6.49714e-08
7.61566e-10
-6.53349e-08
6.64157e-10
-6.56444e-08
5.6575e-10
-6.58995e-08
4.66469e-10
-6.60999e-08
3.66441e-10
-6.62451e-08
2.65798e-10
-6.63349e-08
1.64671e-10
-6.63692e-08
6.31911e-11
-6.63478e-08
-3.85085e-11
-6.62706e-08
-1.40294e-10
-6.61378e-08
-2.4203e-10
-6.59493e-08
-3.43582e-10
-6.57054e-08
-4.44812e-10
-6.54063e-08
-5.45582e-10
-6.50524e-08
-6.45751e-10
-6.46441e-08
-7.4518e-10
-6.41818e-08
-8.43727e-10
-6.36661e-08
-9.41249e-10
-6.30977e-08
-1.0376e-09
-6.24773e-08
-1.13265e-09
-6.18057e-08
-1.22623e-09
-6.10837e-08
-1.31822e-09
-6.03124e-08
-1.40845e-09
-5.94927e-08
-1.4968e-09
-5.86258e-08
-1.5831e-09
-5.77129e-08
-1.66722e-09
-5.67553e-08
-1.749e-09
-5.57543e-08
-1.8283e-09
-5.47113e-08
-1.90498e-09
-5.3628e-08
-1.97888e-09
-5.25058e-08
-2.04987e-09
-5.13465e-08
-2.11779e-09
-5.01518e-08
-2.18251e-09
-4.89236e-08
-2.24388e-09
-4.76637e-08
-2.30177e-09
-4.63742e-08
-2.35603e-09
-4.50571e-08
-2.40654e-09
-4.37145e-08
-2.45314e-09
-4.23486e-08
-2.49572e-09
-4.09618e-08
-2.53414e-09
-3.95563e-08
-2.56828e-09
-3.81346e-08
-2.59801e-09
-3.66991e-08
-2.62321e-09
-3.52523e-08
-2.64376e-09
-3.3797e-08
-2.65957e-09
-3.23356e-08
-2.67051e-09
-3.0871e-08
-2.67649e-09
-2.94059e-08
-2.67741e-09
-2.79431e-08
-2.67317e-09
-2.64854e-08
-2.6637e-09
-2.50357e-08
-2.64891e-09
-2.35971e-08
-2.62874e-09
-2.21723e-08
-2.6031e-09
-2.07646e-08
-2.57196e-09
-1.93767e-08
-2.53527e-09
-1.80119e-08
-2.49297e-09
-1.66731e-08
-2.44506e-09
-1.53634e-08
-2.3915e-09
-1.40859e-08
-2.3323e-09
-1.28436e-08
-2.26747e-09
-1.16395e-08
-2.19703e-09
-1.04767e-08
-2.12101e-09
-9.35799e-09
-2.03949e-09
-8.28645e-09
-1.95254e-09
-7.26487e-09
-1.86026e-09
-6.29602e-09
-1.7628e-09
-5.38258e-09
-1.66032e-09
-4.5271e-09
-1.55302e-09
-3.73199e-09
-1.44115e-09
-2.99947e-09
-1.32502e-09
-2.33157e-09
-1.20501e-09
-1.73004e-09
-1.08155e-09
-1.19634e-09
-9.55189e-10
-7.31563e-10
-8.26592e-10
-3.36327e-10
-6.9656e-10
-1.07204e-11
-5.66086e-10
2.45839e-10
-4.36392e-10
4.34754e-10
-3.08994e-10
5.58434e-10
-1.85786e-10
6.20525e-10
-6.91423e-11
6.26189e-10
3.79426e-11
5.82447e-10
1.31689e-10
4.98553e-10
2.07341e-10
3.86392e-10
2.58993e-10
2.60837e-10
2.79538e-10
1.39886e-10
2.60905e-10
4.45146e-11
1.95197e-10
7.90358e-11
4.95525e-11
-1.30495e-10
1.49778e-10
-2.95272e-10
2.68108e-10
-3.73907e-10
3.79394e-10
-3.7875e-10
4.62843e-10
-3.23062e-10
5.01415e-10
-2.19286e-10
4.8142e-10
-7.82605e-11
3.92101e-10
9.09283e-11
2.25247e-10
2.80845e-10
-2.51758e-11
4.8547e-10
-3.63383e-10
6.9996e-10
-7.92072e-10
9.2042e-10
-1.31268e-09
1.14372e-09
-1.92562e-09
1.36734e-09
-2.63043e-09
1.58925e-09
-3.42595e-09
1.8078e-09
-4.31045e-09
2.02166e-09
-5.28171e-09
2.22975e-09
-6.33713e-09
2.43119e-09
-7.47378e-09
2.62528e-09
-8.68847e-09
2.81145e-09
-9.97782e-09
2.98924e-09
-1.13382e-08
3.15831e-09
-1.2766e-08
3.31835e-09
-1.42574e-08
3.46918e-09
-1.58084e-08
3.61062e-09
-1.74151e-08
3.74257e-09
-1.90736e-08
3.86497e-09
-2.07798e-08
3.97778e-09
-2.25296e-08
4.08099e-09
-2.43192e-08
4.17465e-09
-2.61444e-08
4.25878e-09
-2.80012e-08
4.33345e-09
-2.98858e-08
4.39876e-09
-3.17941e-08
4.4548e-09
-3.37223e-08
4.50167e-09
-3.56666e-08
4.5395e-09
-3.76232e-08
4.56843e-09
-3.95883e-08
4.58859e-09
-4.15583e-08
4.60013e-09
-4.35295e-08
4.60322e-09
-4.54985e-08
4.598e-09
-4.74617e-08
4.58465e-09
-4.94158e-08
4.56333e-09
-5.13575e-08
4.53422e-09
-5.32834e-08
4.4975e-09
-5.51904e-08
4.45335e-09
-5.70755e-08
4.40195e-09
-5.89355e-08
4.34349e-09
-6.07675e-08
4.27815e-09
-6.25687e-08
4.20613e-09
-6.43363e-08
4.12761e-09
-6.60676e-08
4.0428e-09
-6.776e-08
3.95187e-09
-6.94109e-08
3.85504e-09
-7.10178e-08
3.7525e-09
-7.25786e-08
3.64444e-09
-7.40907e-08
3.53107e-09
-7.55521e-08
3.41258e-09
-7.69607e-08
3.28918e-09
-7.83143e-08
3.16106e-09
-7.96112e-08
3.02843e-09
-8.08494e-08
2.8915e-09
-8.20271e-08
2.75047e-09
-8.31428e-08
2.60554e-09
-8.41948e-08
2.45693e-09
-8.51816e-08
2.30484e-09
-8.61019e-08
2.14949e-09
-8.69543e-08
1.99109e-09
-8.77376e-08
1.82984e-09
-8.84507e-08
1.66598e-09
-8.90925e-08
1.4997e-09
-8.96622e-08
1.33124e-09
-9.01588e-08
1.16081e-09
-9.05817e-08
9.88628e-10
-9.09302e-08
8.14927e-10
-9.12037e-08
6.39928e-10
-9.14017e-08
4.63857e-10
-9.1524e-08
2.86944e-10
-9.15702e-08
1.09421e-10
-9.15403e-08
-6.84798e-11
-9.1434e-08
-2.46524e-10
-9.12516e-08
-4.24474e-10
-9.09931e-08
-6.0209e-10
-9.06588e-08
-7.79134e-10
-9.0249e-08
-9.55363e-10
-8.97642e-08
-1.13053e-09
-8.9205e-08
-1.3044e-09
-8.8572e-08
-1.47671e-09
-8.7866e-08
-1.64722e-09
-8.70879e-08
-1.81567e-09
-8.62388e-08
-1.98182e-09
-8.53196e-08
-2.14542e-09
-8.43316e-08
-2.3062e-09
-8.32762e-08
-2.46391e-09
-8.21547e-08
-2.6183e-09
-8.09686e-08
-2.76911e-09
-7.97198e-08
-2.91609e-09
-7.84098e-08
-3.05898e-09
-7.70406e-08
-3.19753e-09
-7.56141e-08
-3.33147e-09
-7.41324e-08
-3.46057e-09
-7.25977e-08
-3.58455e-09
-7.10123e-08
-3.70318e-09
-6.93786e-08
-3.8162e-09
-6.76991e-08
-3.92338e-09
-6.59764e-08
-4.02446e-09
-6.42133e-08
-4.1192e-09
-6.24124e-08
-4.20737e-09
-6.05768e-08
-4.28874e-09
-5.87095e-08
-4.36307e-09
-5.68135e-08
-4.43014e-09
-5.4892e-08
-4.48974e-09
-5.29484e-08
-4.54164e-09
-5.09859e-08
-4.58565e-09
-4.90081e-08
-4.62157e-09
-4.70185e-08
-4.6492e-09
-4.50206e-08
-4.66836e-09
-4.30183e-08
-4.67887e-09
-4.10151e-08
-4.68058e-09
-3.90149e-08
-4.67332e-09
-3.70217e-08
-4.65696e-09
-3.50392e-08
-4.63135e-09
-3.30716e-08
-4.59638e-09
-3.11228e-08
-4.55195e-09
-2.91968e-08
-4.49796e-09
-2.72977e-08
-4.43433e-09
-2.54297e-08
-4.36101e-09
-2.35967e-08
-4.27797e-09
-2.18031e-08
-4.18517e-09
-2.00527e-08
-4.08263e-09
-1.83498e-08
-3.97037e-09
-1.66984e-08
-3.84845e-09
-1.51025e-08
-3.71696e-09
-1.3566e-08
-3.57601e-09
-1.20927e-08
-3.42576e-09
-1.06866e-08
-3.26643e-09
-9.35111e-09
-3.09826e-09
-8.08986e-09
-2.92157e-09
-6.90614e-09
-2.73674e-09
-5.80306e-09
-2.54423e-09
-4.78348e-09
-2.34461e-09
-3.84994e-09
-2.13854e-09
-3.00464e-09
-1.92684e-09
-2.24935e-09
-1.71048e-09
-1.5853e-09
-1.49064e-09
-1.01315e-09
-1.26872e-09
-5.32783e-10
-1.04645e-09
-1.43242e-10
-8.25932e-10
1.57498e-10
-6.09734e-10
3.72718e-10
-4.01005e-10
5.07204e-10
-2.03628e-10
5.67532e-10
-2.23861e-11
5.62391e-10
1.3683e-10
5.02924e-10
2.66809e-10
4.03078e-10
3.5884e-10
2.79956e-10
4.02661e-10
1.54143e-10
3.86716e-10
5.02836e-11
2.99054e-10
1.29321e-10
4.72947e-11
-1.77791e-10
1.39553e-10
-3.87534e-10
2.41386e-10
-4.75737e-10
3.2545e-10
-4.62812e-10
3.69409e-10
-3.67022e-10
3.54935e-10
-2.04811e-10
2.67139e-10
9.53408e-12
9.41456e-11
2.63923e-10
-1.73291e-10
5.48282e-10
-5.42128e-10
8.54303e-10
-1.01733e-09
1.17516e-09
-1.6022e-09
1.50529e-09
-2.29858e-09
1.8401e-09
-3.10713e-09
2.17589e-09
-4.02748e-09
2.5096e-09
-5.0584e-09
2.83873e-09
-6.19798e-09
3.16123e-09
-7.44366e-09
3.47543e-09
-8.79244e-09
3.77997e-09
-1.02409e-08
4.07371e-09
-1.17852e-08
4.35576e-09
-1.34213e-08
4.62538e-09
-1.5145e-08
4.88198e-09
-1.69517e-08
5.12509e-09
-1.88369e-08
5.35435e-09
-2.07958e-08
5.5695e-09
-2.28236e-08
5.77034e-09
-2.49153e-08
5.95674e-09
-2.70662e-08
6.12862e-09
-2.92712e-08
6.28596e-09
-3.15253e-08
6.42877e-09
-3.38236e-08
6.55711e-09
-3.61612e-08
6.67106e-09
-3.85332e-08
6.77072e-09
-4.09346e-08
6.85624e-09
-4.33607e-08
6.92777e-09
-4.58067e-08
6.98549e-09
-4.82679e-08
7.02959e-09
-5.07396e-08
7.06028e-09
-5.32172e-08
7.07777e-09
-5.56963e-08
7.0823e-09
-5.81724e-08
7.07411e-09
-6.06412e-08
7.05344e-09
-6.30984e-08
7.02055e-09
-6.55399e-08
6.97569e-09
-6.79616e-08
6.91915e-09
-7.03594e-08
6.8512e-09
-7.27295e-08
6.7721e-09
-7.50682e-08
6.68215e-09
-7.73717e-08
6.58162e-09
-7.96364e-08
6.47082e-09
-8.18588e-08
6.35002e-09
-8.40355e-08
6.21953e-09
-8.61633e-08
6.07965e-09
-8.82389e-08
5.93068e-09
-9.02593e-08
5.7729e-09
-9.22215e-08
5.60664e-09
-9.41226e-08
5.4322e-09
-9.59599e-08
5.24987e-09
-9.77307e-08
5.05998e-09
-9.94325e-08
4.86284e-09
-1.01063e-07
4.65874e-09
-1.02619e-07
4.44802e-09
-1.041e-07
4.23099e-09
-1.05502e-07
4.00796e-09
-1.06825e-07
3.77925e-09
-1.08065e-07
3.5452e-09
-1.09222e-07
3.30612e-09
-1.10293e-07
3.06234e-09
-1.11277e-07
2.8142e-09
-1.12173e-07
2.56201e-09
-1.1298e-07
2.30613e-09
-1.13695e-07
2.04688e-09
-1.14319e-07
1.78461e-09
-1.1485e-07
1.51965e-09
-1.15288e-07
1.25235e-09
-1.15631e-07
9.83066e-10
-1.15879e-07
7.12139e-10
-1.16032e-07
4.39925e-10
-1.16089e-07
1.66782e-10
-1.16051e-07
-1.06931e-10
-1.15917e-07
-3.80855e-10
-1.15686e-07
-6.54622e-10
-1.15361e-07
-9.27865e-10
-1.1494e-07
-1.20021e-09
-1.14424e-07
-1.47129e-09
-1.13813e-07
-1.74073e-09
-1.1311e-07
-2.00815e-09
-1.12313e-07
-2.27316e-09
-1.11425e-07
-2.53538e-09
-1.10446e-07
-2.79443e-09
-1.09378e-07
-3.04992e-09
-1.08222e-07
-3.30147e-09
-1.0698e-07
-3.54867e-09
-1.05652e-07
-3.79114e-09
-1.04242e-07
-4.02849e-09
-1.02751e-07
-4.26032e-09
-1.01181e-07
-4.48625e-09
-9.9534e-08
-4.70587e-09
-9.78127e-08
-4.9188e-09
-9.60195e-08
-5.12465e-09
-9.41571e-08
-5.32303e-09
-9.22281e-08
-5.51356e-09
-9.02354e-08
-5.69584e-09
-8.81821e-08
-5.8695e-09
-8.60713e-08
-6.03416e-09
-8.39063e-08
-6.18946e-09
-8.16905e-08
-6.33501e-09
-7.94274e-08
-6.47047e-09
-7.71207e-08
-6.59548e-09
-7.47741e-08
-6.70968e-09
-7.23915e-08
-6.81274e-09
-6.99769e-08
-6.90432e-09
-6.75344e-08
-6.9841e-09
-6.50683e-08
-7.05178e-09
-6.25828e-08
-7.10704e-09
-6.00824e-08
-7.1496e-09
-5.75716e-08
-7.17919e-09
-5.50549e-08
-7.19554e-09
-5.25371e-08
-7.1984e-09
-5.00229e-08
-7.18754e-09
-4.75171e-08
-7.16275e-09
-4.50246e-08
-7.12383e-09
-4.25504e-08
-7.07061e-09
-4.00994e-08
-7.00293e-09
-3.76767e-08
-6.92067e-09
-3.52873e-08
-6.82372e-09
-3.29363e-08
-6.712e-09
-3.06288e-08
-6.58547e-09
-2.83699e-08
-6.4441e-09
-2.61646e-08
-6.28793e-09
-2.4018e-08
-6.11702e-09
-2.19349e-08
-5.93146e-09
-1.99205e-08
-5.73141e-09
-1.79794e-08
-5.51708e-09
-1.61164e-08
-5.28874e-09
-1.43362e-08
-5.04672e-09
-1.2643e-08
-4.79145e-09
-1.10411e-08
-4.52343e-09
-9.53454e-09
-4.24329e-09
-8.12701e-09
-3.95176e-09
-6.82188e-09
-3.64974e-09
-5.62213e-09
-3.33829e-09
-4.53031e-09
-3.01867e-09
-3.54839e-09
-2.6924e-09
-2.67773e-09
-2.36129e-09
-1.91895e-09
-2.0275e-09
-1.27175e-09
-1.69364e-09
-7.34835e-10
-1.36285e-09
-3.05662e-10
-1.03891e-09
1.97288e-11
-7.26396e-10
2.4697e-10
-4.30869e-10
3.8363e-10
-1.59047e-10
4.39509e-10
8.095e-11
4.26945e-10
2.79374e-10
3.61149e-10
4.24637e-10
2.60603e-10
5.0321e-10
1.47577e-10
4.99744e-10
4.91056e-11
3.97526e-10
1.78428e-10
4.01546e-11
-2.17945e-10
1.13415e-10
-4.60794e-10
1.84139e-10
-5.46466e-10
2.24234e-10
-5.02904e-10
2.10698e-10
-3.53484e-10
1.24608e-10
-1.18719e-10
-4.95165e-11
1.83656e-10
-3.24153e-10
5.38556e-10
-7.09135e-10
9.33269e-10
-1.21198e-09
1.35715e-09
-1.83815e-09
1.80134e-09
-2.59135e-09
2.25848e-09
-3.47371e-09
2.72247e-09
-4.48608e-09
3.18826e-09
-5.62816e-09
3.65167e-09
-6.89866e-09
4.10923e-09
-8.29551e-09
4.55808e-09
-9.81592e-09
4.99584e-09
-1.14565e-08
5.42056e-09
-1.32134e-08
5.83063e-09
-1.50824e-08
6.22472e-09
-1.70588e-08
6.60176e-09
-1.91376e-08
6.96085e-09
-2.13139e-08
7.30133e-09
-2.35821e-08
7.62262e-09
-2.5937e-08
7.92431e-09
-2.83727e-08
8.20608e-09
-3.08837e-08
8.46772e-09
-3.34641e-08
8.70909e-09
-3.61083e-08
8.93011e-09
-3.88103e-08
9.13079e-09
-4.15644e-08
9.31118e-09
-4.43647e-08
9.47136e-09
-4.72054e-08
9.61147e-09
-5.00809e-08
9.73169e-09
-5.29853e-08
9.83222e-09
-5.59131e-08
9.9133e-09
-5.88587e-08
9.97517e-09
-6.18165e-08
1.00181e-08
-6.47812e-08
1.00424e-08
-6.77474e-08
1.00485e-08
-7.07098e-08
1.00365e-08
-7.36632e-08
1.00069e-08
-7.66027e-08
9.95999e-09
-7.95231e-08
9.89618e-09
-8.24198e-08
9.81582e-09
-8.52879e-08
9.71929e-09
-8.81228e-08
9.60698e-09
-9.09199e-08
9.47929e-09
-9.36749e-08
9.33662e-09
-9.63835e-08
9.17938e-09
-9.90414e-08
9.00797e-09
-1.01645e-07
8.82282e-09
-1.04189e-07
8.62434e-09
-1.06672e-07
8.41295e-09
-1.09088e-07
8.18909e-09
-1.11434e-07
7.95319e-09
-1.13708e-07
7.70566e-09
-1.15905e-07
7.44696e-09
-1.18022e-07
7.17752e-09
-1.20057e-07
6.89777e-09
-1.22007e-07
6.60817e-09
-1.23868e-07
6.30916e-09
-1.25638e-07
6.00119e-09
-1.27315e-07
5.68471e-09
-1.28896e-07
5.36019e-09
-1.30379e-07
5.02806e-09
-1.31761e-07
4.68881e-09
-1.33042e-07
4.3429e-09
-1.34219e-07
3.99079e-09
-1.3529e-07
3.63295e-09
-1.36253e-07
3.26987e-09
-1.37108e-07
2.90201e-09
-1.37854e-07
2.52988e-09
-1.38488e-07
2.15393e-09
-1.3901e-07
1.77468e-09
-1.3942e-07
1.39262e-09
-1.39716e-07
1.00824e-09
-1.39898e-07
6.22044e-10
-1.39966e-07
2.34543e-10
-1.39919e-07
-1.53754e-10
-1.39758e-07
-5.42332e-10
-1.39481e-07
-9.30674e-10
-1.39091e-07
-1.31826e-09
-1.38587e-07
-1.70456e-09
-1.37969e-07
-2.08904e-09
-1.37239e-07
-2.47117e-09
-1.36396e-07
-2.85042e-09
-1.35443e-07
-3.22624e-09
-1.34381e-07
-3.59809e-09
-1.3321e-07
-3.96542e-09
-1.31932e-07
-4.32768e-09
-1.30549e-07
-4.68433e-09
-1.29063e-07
-5.0348e-09
-1.27475e-07
-5.37855e-09
-1.25789e-07
-5.71502e-09
-1.24006e-07
-6.04365e-09
-1.22128e-07
-6.36388e-09
-1.20159e-07
-6.67518e-09
-1.181e-07
-6.97697e-09
-1.15956e-07
-7.26871e-09
-1.1373e-07
-7.54986e-09
-1.11423e-07
-7.81985e-09
-1.09041e-07
-8.07817e-09
-1.06586e-07
-8.32426e-09
-1.04063e-07
-8.55759e-09
-1.01474e-07
-8.77765e-09
-9.88256e-08
-8.98391e-09
-9.61202e-08
-9.17587e-09
-9.33626e-08
-9.35303e-09
-9.05574e-08
-9.51489e-09
-8.77092e-08
-9.66098e-09
-8.48227e-08
-9.79084e-09
-8.19028e-08
-9.904e-09
-7.89545e-08
-1e-08
-7.5983e-08
-1.00785e-08
-7.29935e-08
-1.01391e-08
-6.99914e-08
-1.01813e-08
-6.69821e-08
-1.02048e-08
-6.39711e-08
-1.02093e-08
-6.09642e-08
-1.01945e-08
-5.7967e-08
-1.016e-08
-5.49853e-08
-1.01055e-08
-5.20249e-08
-1.0031e-08
-4.90918e-08
-9.93603e-09
-4.61919e-08
-9.82058e-09
-4.33312e-08
-9.68447e-09
-4.05155e-08
-9.5276e-09
-3.77511e-08
-9.34994e-09
-3.50437e-08
-9.15148e-09
-3.23994e-08
-8.93227e-09
-2.9824e-08
-8.69241e-09
-2.73233e-08
-8.43209e-09
-2.49032e-08
-8.15153e-09
-2.25692e-08
-7.85107e-09
-2.03268e-08
-7.53112e-09
-1.81814e-08
-7.19218e-09
-1.6138e-08
-6.83488e-09
-1.42014e-08
-6.45997e-09
-1.23763e-08
-6.06837e-09
-1.06669e-08
-5.66116e-09
-9.07704e-09
-5.23964e-09
-7.61e-09
-4.80532e-09
-6.26864e-09
-4.36003e-09
-5.05512e-09
-3.90592e-09
-3.97089e-09
-3.44552e-09
-3.01652e-09
-2.98188e-09
-2.19158e-09
-2.51858e-09
-1.49451e-09
-2.05992e-09
-9.22391e-10
-1.61102e-09
-4.70789e-10
-1.178e-09
-1.33501e-10
-7.68156e-10
9.76746e-11
-3.90222e-10
2.33205e-10
-5.458e-11
2.8611e-10
2.26469e-10
2.72285e-10
4.38462e-10
2.10934e-10
5.6456e-10
1.25171e-10
5.85509e-10
4.30445e-11
4.79656e-10
2.21472e-10
2.96721e-11
-2.47615e-10
7.56583e-11
-5.06777e-10
1.03803e-10
-5.74609e-10
8.64596e-11
-4.85561e-10
7.68348e-13
-2.67794e-10
-1.72191e-10
5.42463e-11
-4.48003e-10
4.5947e-10
-8.39322e-10
9.29875e-10
-1.35621e-09
1.45016e-09
-2.00645e-09
2.00738e-09
-2.79573e-09
2.59063e-09
-3.72798e-09
3.19073e-09
-4.80551e-09
3.8e-09
-6.02923e-09
4.41199e-09
-7.39886e-09
5.0213e-09
-8.91307e-09
5.62344e-09
-1.05696e-08
6.21462e-09
-1.23655e-08
6.79171e-09
-1.4297e-08
7.35208e-09
-1.63599e-08
7.89356e-09
-1.85495e-08
8.41434e-09
-2.08607e-08
8.91294e-09
-2.3288e-08
9.38814e-09
-2.58257e-08
9.83898e-09
-2.84677e-08
1.02647e-08
-3.1208e-08
1.06646e-08
-3.40401e-08
1.10383e-08
-3.69578e-08
1.13854e-08
-3.99545e-08
1.17058e-08
-4.30236e-08
1.19992e-08
-4.61585e-08
1.22657e-08
-4.93526e-08
1.25053e-08
-5.25993e-08
1.2718e-08
-5.58919e-08
1.29041e-08
-5.9224e-08
1.30638e-08
-6.2589e-08
1.31972e-08
-6.59805e-08
1.33047e-08
-6.9392e-08
1.33867e-08
-7.28172e-08
1.34434e-08
-7.62499e-08
1.34752e-08
-7.9684e-08
1.34826e-08
-8.31135e-08
1.34659e-08
-8.65323e-08
1.34257e-08
-8.99347e-08
1.33624e-08
-9.33149e-08
1.32764e-08
-9.66674e-08
1.31683e-08
-9.99867e-08
1.30386e-08
-1.03267e-07
1.28877e-08
-1.06504e-07
1.27162e-08
-1.09692e-07
1.25246e-08
-1.12826e-07
1.23136e-08
-1.15902e-07
1.20835e-08
-1.18914e-07
1.1835e-08
-1.21859e-07
1.15687e-08
-1.24731e-07
1.1285e-08
-1.27526e-07
1.09846e-08
-1.30241e-07
1.06681e-08
-1.32871e-07
1.03359e-08
-1.35413e-07
9.9888e-09
-1.37863e-07
9.62725e-09
-1.40217e-07
9.25189e-09
-1.42472e-07
8.8633e-09
-1.44625e-07
8.46209e-09
-1.46673e-07
8.04886e-09
-1.48612e-07
7.62421e-09
-1.50441e-07
7.18877e-09
-1.52156e-07
6.74314e-09
-1.53755e-07
6.28795e-09
-1.55236e-07
5.82382e-09
-1.56596e-07
5.35138e-09
-1.57835e-07
4.87127e-09
-1.58949e-07
4.38412e-09
-1.59938e-07
3.89059e-09
-1.60799e-07
3.39131e-09
-1.61532e-07
2.88694e-09
-1.62136e-07
2.37815e-09
-1.62609e-07
1.86559e-09
-1.6295e-07
1.34993e-09
-1.6316e-07
8.31865e-10
-1.63238e-07
3.12058e-10
-1.63183e-07
-2.08799e-10
-1.62995e-07
-7.30017e-10
-1.62675e-07
-1.2509e-09
-1.62222e-07
-1.77074e-09
-1.61638e-07
-2.28884e-09
-1.60922e-07
-2.80449e-09
-1.60077e-07
-3.31696e-09
-1.59101e-07
-3.82554e-09
-1.57998e-07
-4.32951e-09
-1.56768e-07
-4.82812e-09
-1.55413e-07
-5.32066e-09
-1.53934e-07
-5.80638e-09
-1.52334e-07
-6.28454e-09
-1.50614e-07
-6.75441e-09
-1.48778e-07
-7.21524e-09
-1.46826e-07
-7.66629e-09
-1.44763e-07
-8.10682e-09
-1.42591e-07
-8.53608e-09
-1.40313e-07
-8.95334e-09
-1.37932e-07
-9.35785e-09
-1.35452e-07
-9.74887e-09
-1.32876e-07
-1.01257e-08
-1.30208e-07
-1.04875e-08
-1.27453e-07
-1.08337e-08
-1.24613e-07
-1.11636e-08
-1.21695e-07
-1.14763e-08
-1.18701e-07
-1.17712e-08
-1.15637e-07
-1.20477e-08
-1.12508e-07
-1.2305e-08
-1.09319e-07
-1.25425e-08
-1.06074e-07
-1.27595e-08
-1.0278e-07
-1.29555e-08
-9.94408e-08
-1.31297e-08
-9.60633e-08
-1.32816e-08
-9.26527e-08
-1.34106e-08
-8.92152e-08
-1.35161e-08
-8.57566e-08
-1.35977e-08
-8.22831e-08
-1.36548e-08
-7.8801e-08
-1.36869e-08
-7.53167e-08
-1.36937e-08
-7.18365e-08
-1.36746e-08
-6.83672e-08
-1.36293e-08
-6.49153e-08
-1.35575e-08
-6.14874e-08
-1.34588e-08
-5.80904e-08
-1.3333e-08
-5.4731e-08
-1.318e-08
-5.14161e-08
-1.29994e-08
-4.81524e-08
-1.27913e-08
-4.49467e-08
-1.25556e-08
-4.1806e-08
-1.22922e-08
-3.87368e-08
-1.20014e-08
-3.5746e-08
-1.16832e-08
-3.28401e-08
-1.1338e-08
-3.00256e-08
-1.0966e-08
-2.73088e-08
-1.05678e-08
-2.4696e-08
-1.0144e-08
-2.21931e-08
-9.69512e-09
-1.98057e-08
-9.22221e-09
-1.75394e-08
-8.72628e-09
-1.53992e-08
-8.20857e-09
-1.33898e-08
-7.67057e-09
-1.15154e-08
-7.11404e-09
-9.77967e-09
-6.54104e-09
-8.1857e-09
-5.95401e-09
-6.73581e-09
-5.35581e-09
-5.43153e-09
-4.7498e-09
-4.27343e-09
-4.13997e-09
-3.26102e-09
-3.53099e-09
-2.39257e-09
-2.92838e-09
-1.66493e-09
-2.33866e-09
-1.07338e-09
-1.76955e-09
-6.11398e-10
-1.23013e-09
-2.70462e-10
-7.31156e-10
-3.97922e-11
-2.85248e-10
9.39026e-11
9.27774e-11
1.46734e-10
3.8563e-10
1.38059e-10
5.73233e-10
9.10547e-11
6.32516e-10
3.3592e-11
5.37121e-10
2.55063e-10
1.6945e-11
-2.64562e-10
2.96118e-11
-5.19442e-10
6.38503e-12
-5.51386e-10
-7.90224e-11
-4.00154e-10
-2.48649e-10
-9.81659e-11
-5.20911e-10
3.26506e-10
-9.11063e-10
8.49625e-10
-1.43159e-09
1.4504e-09
-2.09248e-09
2.11105e-09
-2.90148e-09
2.81639e-09
-3.86435e-09
3.55349e-09
-4.98501e-09
4.31139e-09
-6.26581e-09
5.0808e-09
-7.70766e-09
5.85384e-09
-9.31023e-09
6.62386e-09
-1.10721e-08
7.38527e-09
-1.29908e-08
8.13332e-09
-1.50631e-08
8.86404e-09
-1.72851e-08
9.57408e-09
-1.96522e-08
1.02607e-08
-2.21593e-08
1.09214e-08
-2.48007e-08
1.15544e-08
-2.75707e-08
1.21581e-08
-3.04628e-08
1.27311e-08
-3.34705e-08
1.32724e-08
-3.65871e-08
1.37812e-08
-3.98056e-08
1.42568e-08
-4.31189e-08
1.46987e-08
-4.65199e-08
1.51067e-08
-5.00012e-08
1.54805e-08
-5.35555e-08
1.582e-08
-5.71755e-08
1.61253e-08
-6.08538e-08
1.63964e-08
-6.45831e-08
1.66334e-08
-6.83561e-08
1.68367e-08
-7.21654e-08
1.70065e-08
-7.60039e-08
1.71432e-08
-7.98644e-08
1.72472e-08
-8.37398e-08
1.73188e-08
-8.76232e-08
1.73586e-08
-9.15077e-08
1.73671e-08
-9.53865e-08
1.73447e-08
-9.92529e-08
1.72921e-08
-1.031e-07
1.72099e-08
-1.06923e-07
1.70986e-08
-1.10713e-07
1.69589e-08
-1.14466e-07
1.67913e-08
-1.18175e-07
1.65966e-08
-1.21834e-07
1.63755e-08