/*--------------------------------*- C++ -*----------------------------------*\
  =========                 |
  \\      /  F ield         | OpenFOAM: The Open Source CFD Toolbox
   \\    /   O peration     | Website:  https://openfoam.org
    \\  /    A nd           | Version:  7
     \\/     M anipulation  |
\*---------------------------------------------------------------------------*/
FoamFile
{
    version     2.0;
    format      ascii;
    class       volVectorField;
    location    "0.1875";
    object      U;
}
// * * * * * * * * * * * * * * * * * * * * * * * * * * * * * * * * * * * * * //

dimensions      [0 1 -1 0 0 0 0];

internalField   nonuniform List<vector> 
25600
(
(1.96662e-07 -1.86081e-07 0)
(2.85069e-06 -1.77721e-06 0)
(9.06581e-06 -2.8237e-06 0)
(1.68894e-05 -3.19746e-06 0)
(2.48218e-05 -3.1131e-06 0)
(3.19059e-05 -2.73428e-06 0)
(3.74921e-05 -2.16888e-06 0)
(4.11295e-05 -1.48789e-06 0)
(4.25222e-05 -7.3765e-07 0)
(4.14767e-05 5.14581e-08 0)
(3.7876e-05 8.5864e-07 0)
(3.1658e-05 1.67054e-06 0)
(2.28026e-05 2.47639e-06 0)
(1.13188e-05 3.26917e-06 0)
(-2.75954e-06 4.04339e-06 0)
(-1.93817e-05 4.7956e-06 0)
(-3.8482e-05 5.52259e-06 0)
(-5.99841e-05 6.22239e-06 0)
(-8.38033e-05 6.89348e-06 0)
(-0.000109848 7.53409e-06 0)
(-0.000138023 8.14363e-06 0)
(-0.000168225 8.72156e-06 0)
(-0.000200355 9.26755e-06 0)
(-0.000234305 9.78151e-06 0)
(-0.000269969 1.02635e-05 0)
(-0.00030724 1.07124e-05 0)
(-0.000346009 1.11291e-05 0)
(-0.000386169 1.15139e-05 0)
(-0.000427612 1.1867e-05 0)
(-0.00047023 1.21893e-05 0)
(-0.000513917 1.24808e-05 0)
(-0.000558568 1.27418e-05 0)
(-0.000604078 1.29725e-05 0)
(-0.000650344 1.3174e-05 0)
(-0.000697264 1.33465e-05 0)
(-0.000744738 1.34899e-05 0)
(-0.000792667 1.36053e-05 0)
(-0.000840955 1.36932e-05 0)
(-0.000889505 1.37539e-05 0)
(-0.000938225 1.37882e-05 0)
(-0.000987022 1.3797e-05 0)
(-0.00103581 1.37808e-05 0)
(-0.00108449 1.374e-05 0)
(-0.00113299 1.36749e-05 0)
(-0.00118123 1.35863e-05 0)
(-0.0012291 1.34746e-05 0)
(-0.00127655 1.33407e-05 0)
(-0.00132349 1.31852e-05 0)
(-0.00136985 1.30086e-05 0)
(-0.00141554 1.28115e-05 0)
(-0.00146051 1.25945e-05 0)
(-0.00150467 1.23582e-05 0)
(-0.00154797 1.21032e-05 0)
(-0.00159033 1.18302e-05 0)
(-0.0016317 1.15396e-05 0)
(-0.00167201 1.12321e-05 0)
(-0.00171121 1.09082e-05 0)
(-0.00174922 1.05686e-05 0)
(-0.00178602 1.0214e-05 0)
(-0.00182153 9.84492e-06 0)
(-0.0018557 9.46183e-06 0)
(-0.0018885 9.0653e-06 0)
(-0.00191987 8.65591e-06 0)
(-0.00194977 8.23444e-06 0)
(-0.00197815 7.80166e-06 0)
(-0.00200498 7.35805e-06 0)
(-0.00203022 6.9041e-06 0)
(-0.00205384 6.44044e-06 0)
(-0.00207579 5.96766e-06 0)
(-0.00209606 5.48636e-06 0)
(-0.0021146 4.99724e-06 0)
(-0.0021314 4.50096e-06 0)
(-0.00214642 3.99813e-06 0)
(-0.00215965 3.48939e-06 0)
(-0.00217107 2.97538e-06 0)
(-0.00218066 2.45675e-06 0)
(-0.00218841 1.93421e-06 0)
(-0.0021943 1.40845e-06 0)
(-0.00219832 8.8004e-07 0)
(-0.00220046 3.49595e-07 0)
(-0.00220072 -1.82157e-07 0)
(-0.0021991 -7.14494e-07 0)
(-0.00219559 -1.24674e-06 0)
(-0.0021902 -1.77815e-06 0)
(-0.00218292 -2.30796e-06 0)
(-0.00217378 -2.83549e-06 0)
(-0.00216278 -3.36018e-06 0)
(-0.00214992 -3.88133e-06 0)
(-0.00213523 -4.39806e-06 0)
(-0.00211872 -4.90944e-06 0)
(-0.00210041 -5.41482e-06 0)
(-0.00208033 -5.91359e-06 0)
(-0.00205849 -6.40504e-06 0)
(-0.00203494 -6.88838e-06 0)
(-0.00200969 -7.36275e-06 0)
(-0.00198278 -7.82729e-06 0)
(-0.00195425 -8.28122e-06 0)
(-0.00192414 -8.72394e-06 0)
(-0.00189248 -9.15476e-06 0)
(-0.00185933 -9.57285e-06 0)
(-0.00182473 -9.97731e-06 0)
(-0.00178872 -1.03672e-05 0)
(-0.00175137 -1.07419e-05 0)
(-0.00171273 -1.11005e-05 0)
(-0.00167285 -1.14425e-05 0)
(-0.0016318 -1.17672e-05 0)
(-0.00158963 -1.20737e-05 0)
(-0.00154642 -1.23614e-05 0)
(-0.00150224 -1.26292e-05 0)
(-0.00145714 -1.28765e-05 0)
(-0.00141122 -1.31025e-05 0)
(-0.00136454 -1.33066e-05 0)
(-0.00131718 -1.34883e-05 0)
(-0.00126923 -1.36468e-05 0)
(-0.00122076 -1.37813e-05 0)
(-0.00117186 -1.38911e-05 0)
(-0.00112263 -1.39757e-05 0)
(-0.00107314 -1.40344e-05 0)
(-0.00102349 -1.40666e-05 0)
(-0.000973781 -1.40718e-05 0)
(-0.000924101 -1.40493e-05 0)
(-0.000874549 -1.39985e-05 0)
(-0.000825225 -1.39191e-05 0)
(-0.000776229 -1.38106e-05 0)
(-0.000727664 -1.36728e-05 0)
(-0.000679632 -1.35051e-05 0)
(-0.000632239 -1.33069e-05 0)
(-0.00058559 -1.30778e-05 0)
(-0.000539791 -1.28177e-05 0)
(-0.00049495 -1.25265e-05 0)
(-0.000451175 -1.22039e-05 0)
(-0.000408574 -1.18497e-05 0)
(-0.000367254 -1.1464e-05 0)
(-0.000327323 -1.10469e-05 0)
(-0.000288889 -1.05979e-05 0)
(-0.000252059 -1.0117e-05 0)
(-0.000216937 -9.60465e-06 0)
(-0.000183629 -9.0613e-06 0)
(-0.000152234 -8.48744e-06 0)
(-0.000122854 -7.88357e-06 0)
(-9.5583e-05 -7.25038e-06 0)
(-7.05131e-05 -6.58889e-06 0)
(-4.77306e-05 -5.90048e-06 0)
(-2.73156e-05 -5.18682e-06 0)
(-9.34004e-06 -4.44989e-06 0)
(6.13366e-06 -3.6922e-06 0)
(1.9055e-05 -2.91712e-06 0)
(2.9389e-05 -2.12909e-06 0)
(3.71201e-05 -1.33384e-06 0)
(4.22572e-05 -5.39033e-07 0)
(4.48409e-05 2.44826e-07 0)
(4.49539e-05 1.00315e-06 0)
(4.2734e-05 1.71522e-06 0)
(3.83945e-05 2.35056e-06 0)
(3.2254e-05 2.86305e-06 0)
(2.47785e-05 3.18264e-06 0)
(1.66317e-05 3.20505e-06 0)
(8.76214e-06 2.77404e-06 0)
(2.64368e-06 1.69603e-06 0)
(1.24305e-07 1.25537e-07 0)
(1.78615e-06 -2.85134e-06 0)
(9.38104e-06 -9.36823e-06 0)
(2.30925e-05 -1.33757e-05 0)
(3.9277e-05 -1.46785e-05 0)
(5.50892e-05 -1.39058e-05 0)
(6.85412e-05 -1.163e-05 0)
(7.80904e-05 -8.29396e-06 0)
(8.25875e-05 -4.2261e-06 0)
(8.11986e-05 3.33189e-07 0)
(7.33503e-05 5.20942e-06 0)
(5.86592e-05 1.02738e-05 0)
(3.68956e-05 1.54311e-05 0)
(7.94387e-06 2.06086e-05 0)
(-2.82179e-05 2.57516e-05 0)
(-7.15417e-05 3.08175e-05 0)
(-0.000121921 3.57736e-05 0)
(-0.000179207 4.05943e-05 0)
(-0.000243212 4.52599e-05 0)
(-0.000313723 4.97546e-05 0)
(-0.000390503 5.40664e-05 0)
(-0.000473296 5.81854e-05 0)
(-0.000561834 6.2105e-05 0)
(-0.000655838 6.58194e-05 0)
(-0.00075502 6.93258e-05 0)
(-0.000859086 7.26207e-05 0)
(-0.000967736 7.57031e-05 0)
(-0.00108067 7.8571e-05 0)
(-0.00119758 8.1226e-05 0)
(-0.00131818 8.36677e-05 0)
(-0.00144214 8.58982e-05 0)
(-0.00156918 8.79185e-05 0)
(-0.00169899 8.97308e-05 0)
(-0.00183128 9.13366e-05 0)
(-0.00196574 9.27395e-05 0)
(-0.0021021 9.39417e-05 0)
(-0.00224005 9.49459e-05 0)
(-0.00237932 9.57559e-05 0)
(-0.00251963 9.63748e-05 0)
(-0.00266071 9.68058e-05 0)
(-0.00280227 9.70525e-05 0)
(-0.00294407 9.71192e-05 0)
(-0.00308583 9.70094e-05 0)
(-0.00322731 9.67269e-05 0)
(-0.00336826 9.62754e-05 0)
(-0.00350843 9.56587e-05 0)
(-0.00364758 9.48808e-05 0)
(-0.00378549 9.39458e-05 0)
(-0.00392192 9.28579e-05 0)
(-0.00405666 9.16211e-05 0)
(-0.00418948 9.02394e-05 0)
(-0.00432019 8.87168e-05 0)
(-0.00444858 8.70576e-05 0)
(-0.00457445 8.52659e-05 0)
(-0.00469761 8.33461e-05 0)
(-0.00481788 8.13021e-05 0)
(-0.00493508 7.91383e-05 0)
(-0.00504903 7.68586e-05 0)
(-0.00515957 7.44675e-05 0)
(-0.00526654 7.1969e-05 0)
(-0.00536978 6.93675e-05 0)
(-0.00546915 6.66673e-05 0)
(-0.0055645 6.38723e-05 0)
(-0.0056557 6.09869e-05 0)
(-0.00574263 5.80155e-05 0)
(-0.00582515 5.49624e-05 0)
(-0.00590315 5.18322e-05 0)
(-0.00597652 4.86289e-05 0)
(-0.00604516 4.53569e-05 0)
(-0.00610897 4.20208e-05 0)
(-0.00616785 3.86248e-05 0)
(-0.00622173 3.51737e-05 0)
(-0.00627053 3.16719e-05 0)
(-0.00631418 2.81239e-05 0)
(-0.00635261 2.45342e-05 0)
(-0.00638576 2.09076e-05 0)
(-0.00641359 1.72486e-05 0)
(-0.00643605 1.35619e-05 0)
(-0.00645311 9.85253e-06 0)
(-0.00646473 6.12508e-06 0)
(-0.00647089 2.38419e-06 0)
(-0.00647157 -1.36523e-06 0)
(-0.00646678 -5.11822e-06 0)
(-0.0064565 -8.86989e-06 0)
(-0.00644075 -1.26152e-05 0)
(-0.00641953 -1.6349e-05 0)
(-0.00639287 -2.00662e-05 0)
(-0.00636079 -2.37617e-05 0)
(-0.00632334 -2.74307e-05 0)
(-0.00628055 -3.10679e-05 0)
(-0.00623248 -3.46677e-05 0)
(-0.00617918 -3.82248e-05 0)
(-0.00612073 -4.1734e-05 0)
(-0.00605719 -4.51902e-05 0)
(-0.00598865 -4.8588e-05 0)
(-0.00591519 -5.1922e-05 0)
(-0.00583693 -5.51866e-05 0)
(-0.00575395 -5.83763e-05 0)
(-0.00566638 -6.14858e-05 0)
(-0.00557434 -6.45097e-05 0)
(-0.00547795 -6.74428e-05 0)
(-0.00537736 -7.02794e-05 0)
(-0.00527271 -7.30138e-05 0)
(-0.00516415 -7.56408e-05 0)
(-0.00505184 -7.8155e-05 0)
(-0.00493595 -8.05512e-05 0)
(-0.00481667 -8.28241e-05 0)
(-0.00469417 -8.49686e-05 0)
(-0.00456864 -8.69795e-05 0)
(-0.00444028 -8.88516e-05 0)
(-0.00430931 -9.05796e-05 0)
(-0.00417592 -9.21586e-05 0)
(-0.00404036 -9.35837e-05 0)
(-0.00390283 -9.48502e-05 0)
(-0.00376358 -9.59535e-05 0)
(-0.00362285 -9.6889e-05 0)
(-0.00348088 -9.76522e-05 0)
(-0.00333793 -9.82389e-05 0)
(-0.00319426 -9.8645e-05 0)
(-0.00305013 -9.88664e-05 0)
(-0.00290582 -9.88995e-05 0)
(-0.0027616 -9.87404e-05 0)
(-0.00261774 -9.83859e-05 0)
(-0.00247455 -9.78328e-05 0)
(-0.0023323 -9.70781e-05 0)
(-0.00219129 -9.61194e-05 0)
(-0.00205182 -9.49541e-05 0)
(-0.00191418 -9.35799e-05 0)
(-0.00177868 -9.1995e-05 0)
(-0.00164563 -9.0198e-05 0)
(-0.00151532 -8.8188e-05 0)
(-0.00138806 -8.59643e-05 0)
(-0.00126417 -8.35265e-05 0)
(-0.00114394 -8.0875e-05 0)
(-0.00102769 -7.80106e-05 0)
(-0.000915703 -7.49346e-05 0)
(-0.00080829 -7.16489e-05 0)
(-0.000705742 -6.81563e-05 0)
(-0.000608347 -6.44608e-05 0)
(-0.000516385 -6.05678e-05 0)
(-0.000430127 -5.64834e-05 0)
(-0.000349831 -5.22154e-05 0)
(-0.000275743 -4.77732e-05 0)
(-0.000208089 -4.31689e-05 0)
(-0.000147075 -3.84172e-05 0)
(-9.28812e-05 -3.35362e-05 0)
(-4.56552e-05 -2.85486e-05 0)
(-5.50661e-06 -2.34822e-05 0)
(2.75031e-05 -1.83719e-05 0)
(5.33718e-05 -1.32624e-05 0)
(7.21714e-05 -8.21082e-06 0)
(8.40672e-05 -3.29094e-06 0)
(8.9342e-05 1.40037e-06 0)
(8.84287e-05 5.73469e-06 0)
(8.19526e-05 9.53897e-06 0)
(7.0787e-05 1.25773e-05 0)
(5.61207e-05 1.45296e-05 0)
(3.95079e-05 1.49731e-05 0)
(2.29277e-05 1.33693e-05 0)
(9.15232e-06 9.1602e-06 0)
(1.69007e-06 2.64162e-06 0)
(2.8228e-06 -9.06042e-06 0)
(1.33793e-05 -2.30886e-05 0)
(3.09896e-05 -3.09721e-05 0)
(5.0682e-05 -3.30123e-05 0)
(6.88667e-05 -3.03087e-05 0)
(8.29795e-05 -2.39602e-05 0)
(9.09459e-05 -1.48945e-05 0)
(9.11233e-05 -3.85677e-06 0)
(8.2287e-05 8.57287e-06 0)
(6.3541e-05 2.19477e-05 0)
(3.42682e-05 3.59238e-05 0)
(-5.93246e-06 5.02347e-05 0)
(-5.72812e-05 6.4674e-05 0)
(-0.000119859 7.90797e-05 0)
(-0.000193629 9.33247e-05 0)
(-0.000278463 0.000107309 0)
(-0.000374157 0.000120951 0)
(-0.000480448 0.000134189 0)
(-0.000597022 0.000146973 0)
(-0.000723528 0.000159262 0)
(-0.000859581 0.000171026 0)
(-0.00100477 0.000182239 0)
(-0.00115866 0.000192883 0)
(-0.00132082 0.000202943 0)
(-0.00149077 0.00021241 0)
(-0.00166806 0.000221276 0)
(-0.00185222 0.000229537 0)
(-0.00204275 0.000237192 0)
(-0.00223918 0.000244239 0)
(-0.00244103 0.000250682 0)
(-0.00264782 0.000256522 0)
(-0.00285907 0.000261765 0)
(-0.00307431 0.000266415 0)
(-0.00329305 0.00027048 0)
(-0.00351484 0.000273965 0)
(-0.00373921 0.000276879 0)
(-0.00396571 0.000279232 0)
(-0.00419388 0.000281031 0)
(-0.00442328 0.000282286 0)
(-0.00465348 0.000283006 0)
(-0.00488405 0.000283203 0)
(-0.00511456 0.000282887 0)
(-0.00534462 0.000282068 0)
(-0.0055738 0.000280757 0)
(-0.00580172 0.000278965 0)
(-0.00602799 0.000276704 0)
(-0.00625224 0.000273985 0)
(-0.00647409 0.00027082 0)
(-0.00669319 0.00026722 0)
(-0.00690919 0.000263197 0)
(-0.00712175 0.000258763 0)
(-0.00733053 0.000253929 0)
(-0.00753523 0.000248709 0)
(-0.00773552 0.000243113 0)
(-0.00793111 0.000237154 0)
(-0.0081217 0.000230845 0)
(-0.00830702 0.000224198 0)
(-0.00848679 0.000217224 0)
(-0.00866075 0.000209936 0)
(-0.00882865 0.000202347 0)
(-0.00899025 0.000194468 0)
(-0.00914532 0.000186313 0)
(-0.00929363 0.000177893 0)
(-0.00943498 0.000169222 0)
(-0.00956917 0.000160312 0)
(-0.00969601 0.000151176 0)
(-0.00981531 0.000141826 0)
(-0.0099269 0.000132276 0)
(-0.0100306 0.000122538 0)
(-0.0101264 0.000112625 0)
(-0.010214 0.000102551 0)
(-0.0102933 9.23297e-05 0)
(-0.0103642 8.19733e-05 0)
(-0.0104266 7.14958e-05 0)
(-0.0104805 6.09105e-05 0)
(-0.0105257 5.02311e-05 0)
(-0.0105621 3.94712e-05 0)
(-0.0105898 2.86449e-05 0)
(-0.0106086 1.77664e-05 0)
(-0.0106185 6.84962e-06 0)
(-0.0106196 -4.09114e-06 0)
(-0.0106117 -1.50415e-05 0)
(-0.0105949 -2.5987e-05 0)
(-0.0105692 -3.69132e-05 0)
(-0.0105346 -4.78052e-05 0)
(-0.0104911 -5.86479e-05 0)
(-0.0104389 -6.94266e-05 0)
(-0.0103779 -8.0126e-05 0)
(-0.0103082 -9.07312e-05 0)
(-0.0102299 -0.000101227 0)
(-0.0101432 -0.000111597 0)
(-0.0100481 -0.000121827 0)
(-0.00994466 -0.0001319 0)
(-0.00983314 -0.000141802 0)
(-0.00971363 -0.000151516 0)
(-0.00958631 -0.000161027 0)
(-0.00945134 -0.000170319 0)
(-0.0093089 -0.000179376 0)
(-0.00915921 -0.000188182 0)
(-0.00900246 -0.000196721 0)
(-0.00883889 -0.000204979 0)
(-0.00866872 -0.000212938 0)
(-0.00849222 -0.000220583 0)
(-0.00830963 -0.0002279 0)
(-0.00812124 -0.000234871 0)
(-0.00792733 -0.000241483 0)
(-0.00772821 -0.000247719 0)
(-0.00752417 -0.000253566 0)
(-0.00731556 -0.000259007 0)
(-0.00710269 -0.00026403 0)
(-0.00688593 -0.000268618 0)
(-0.00666562 -0.000272759 0)
(-0.00644214 -0.000276437 0)
(-0.00621587 -0.000279641 0)
(-0.00598719 -0.000282356 0)
(-0.00575651 -0.000284571 0)
(-0.00552424 -0.000286274 0)
(-0.00529079 -0.000287452 0)
(-0.00505661 -0.000288094 0)
(-0.00482212 -0.00028819 0)
(-0.00458777 -0.000287729 0)
(-0.00435401 -0.000286703 0)
(-0.00412131 -0.000285102 0)
(-0.00389013 -0.000282918 0)
(-0.00366094 -0.000280145 0)
(-0.00343422 -0.000276775 0)
(-0.00321045 -0.000272804 0)
(-0.00299012 -0.000268226 0)
(-0.00277371 -0.000263039 0)
(-0.00256171 -0.00025724 0)
(-0.00235461 -0.000250829 0)
(-0.0021529 -0.000243805 0)
(-0.00195707 -0.00023617 0)
(-0.0017676 -0.000227929 0)
(-0.00158496 -0.000219087 0)
(-0.00140963 -0.000209652 0)
(-0.00124207 -0.000199634 0)
(-0.00108273 -0.000189047 0)
(-0.000932039 -0.000177908 0)
(-0.000790428 -0.000166238 0)
(-0.000658289 -0.000154062 0)
(-0.000535995 -0.000141412 0)
(-0.000423887 -0.000128327 0)
(-0.00032227 -0.000114852 0)
(-0.000231402 -0.000101046 0)
(-0.000151491 -8.69786e-05 0)
(-8.26759e-05 -7.27346e-05 0)
(-2.5019e-05 -5.84207e-05 0)
(2.15145e-05 -4.41695e-05 0)
(5.70771e-05 -3.01468e-05 0)
(8.19655e-05 -1.65624e-05 0)
(9.66544e-05 -3.68339e-06 0)
(0.000101836 8.14875e-06 0)
(9.8472e-05 1.84941e-05 0)
(8.78499e-05 2.6787e-05 0)
(7.16522e-05 3.23091e-05 0)
(5.19786e-05 3.41784e-05 0)
(3.13704e-05 3.13766e-05 0)
(1.33559e-05 2.29303e-05 0)
(2.76491e-06 8.74927e-06 0)
(3.19786e-06 -1.68923e-05 0)
(1.47087e-05 -3.92967e-05 0)
(3.30965e-05 -5.06817e-05 0)
(5.25135e-05 -5.23925e-05 0)
(6.88529e-05 -4.61665e-05 0)
(7.92121e-05 -3.36817e-05 0)
(8.11769e-05 -1.63973e-05 0)
(7.28066e-05 4.47425e-06 0)
(5.25921e-05 2.79534e-05 0)
(1.94126e-05 5.32588e-05 0)
(-2.75421e-05 7.9769e-05 0)
(-8.88119e-05 0.000106992 0)
(-0.00016472 0.000134536 0)
(-0.000255405 0.000162088 0)
(-0.000360856 0.0001894 0)
(-0.000480939 0.00021627 0)
(-0.00061542 0.000242539 0)
(-0.000763975 0.000268075 0)
(-0.000926219 0.000292774 0)
(-0.00110171 0.000316554 0)
(-0.00128994 0.000339349 0)
(-0.00149041 0.000361103 0)
(-0.00170253 0.000381777 0)
(-0.00192574 0.000401337 0)
(-0.00215942 0.000419761 0)
(-0.00240297 0.000437031 0)
(-0.00265574 0.000453136 0)
(-0.00291712 0.000468068 0)
(-0.00318645 0.000481826 0)
(-0.0034631 0.000494411 0)
(-0.00374641 0.000505826 0)
(-0.00403575 0.000516078 0)
(-0.00433047 0.000525177 0)
(-0.00462994 0.000533132 0)
(-0.00493352 0.000539957 0)
(-0.0052406 0.000545665 0)
(-0.00555055 0.000550274 0)
(-0.00586277 0.000553798 0)
(-0.00617665 0.000556256 0)
(-0.0064916 0.000557667 0)
(-0.00680704 0.000558049 0)
(-0.0071224 0.000557423 0)
(-0.00743712 0.000555809 0)
(-0.00775064 0.000553227 0)
(-0.00806243 0.0005497 0)
(-0.00837196 0.000545249 0)
(-0.00867872 0.000539897 0)
(-0.00898221 0.000533665 0)
(-0.00928193 0.000526577 0)
(-0.00957741 0.000518655 0)
(-0.00986818 0.000509922 0)
(-0.0101538 0.000500403 0)
(-0.0104338 0.000490119 0)
(-0.0107078 0.000479096 0)
(-0.0109754 0.000467357 0)
(-0.0112361 0.000454925 0)
(-0.0114896 0.000441826 0)
(-0.0117355 0.000428083 0)
(-0.0119735 0.000413719 0)
(-0.0122032 0.000398761 0)
(-0.0124242 0.000383231 0)
(-0.0126363 0.000367155 0)
(-0.0128392 0.000350557 0)
(-0.0130326 0.000333463 0)
(-0.0132161 0.000315897 0)
(-0.0133896 0.000297885 0)
(-0.0135527 0.000279452 0)
(-0.0137054 0.000260623 0)
(-0.0138472 0.000241423 0)
(-0.0139781 0.00022188 0)
(-0.0140979 0.000202019 0)
(-0.0142063 0.000181865 0)
(-0.0143033 0.000161447 0)
(-0.0143886 0.000140789 0)
(-0.0144622 0.00011992 0)
(-0.0145239 9.88661e-05 0)
(-0.0145737 7.76541e-05 0)
(-0.0146114 5.63118e-05 0)
(-0.0146371 3.48671e-05 0)
(-0.0146506 1.33479e-05 0)
(-0.0146519 -8.21755e-06 0)
(-0.014641 -2.9801e-05 0)
(-0.0146179 -5.13736e-05 0)
(-0.0145826 -7.29065e-05 0)
(-0.0145352 -9.43707e-05 0)
(-0.0144756 -0.000115737 0)
(-0.014404 -0.000136975 0)
(-0.0143205 -0.000158056 0)
(-0.0142251 -0.00017895 0)
(-0.0141179 -0.000199625 0)
(-0.0139992 -0.000220053 0)
(-0.013869 -0.000240202 0)
(-0.0137274 -0.000260041 0)
(-0.0135748 -0.000279541 0)
(-0.0134113 -0.000298669 0)
(-0.0132371 -0.000317395 0)
(-0.0130524 -0.000335689 0)
(-0.0128575 -0.000353518 0)
(-0.0126528 -0.000370851 0)
(-0.0124384 -0.000387659 0)
(-0.0122146 -0.000403909 0)
(-0.0119819 -0.000419571 0)
(-0.0117405 -0.000434614 0)
(-0.0114908 -0.000449008 0)
(-0.0112331 -0.000462722 0)
(-0.010968 -0.000475727 0)
(-0.0106957 -0.000487993 0)
(-0.0104167 -0.000499491 0)
(-0.0101315 -0.000510191 0)
(-0.00984047 -0.000520065 0)
(-0.00954411 -0.000529086 0)
(-0.00924291 -0.000537226 0)
(-0.00893739 -0.000544457 0)
(-0.00862805 -0.000550755 0)
(-0.00831543 -0.000556094 0)
(-0.00800007 -0.00056045 0)
(-0.00768253 -0.000563799 0)
(-0.00736339 -0.000566118 0)
(-0.00704322 -0.000567387 0)
(-0.00672262 -0.000567584 0)
(-0.00640221 -0.000566691 0)
(-0.00608258 -0.00056469 0)
(-0.00576436 -0.000561564 0)
(-0.0054482 -0.000557298 0)
(-0.00513472 -0.000551879 0)
(-0.00482457 -0.000545295 0)
(-0.0045184 -0.000537536 0)
(-0.00421687 -0.000528596 0)
(-0.00392063 -0.000518468 0)
(-0.00363034 -0.000507149 0)
(-0.00334666 -0.000494639 0)
(-0.00307024 -0.000480941 0)
(-0.00280173 -0.000466061 0)
(-0.00254179 -0.000450006 0)
(-0.00229103 -0.000432792 0)
(-0.0020501 -0.000414437 0)
(-0.0018196 -0.000394962 0)
(-0.00160013 -0.000374399 0)
(-0.00139226 -0.000352783 0)
(-0.00119654 -0.00033016 0)
(-0.00101347 -0.000306583 0)
(-0.000843553 -0.000282119 0)
(-0.000687209 -0.000256847 0)
(-0.000544824 -0.000230865 0)
(-0.000416717 -0.000204288 0)
(-0.000303133 -0.000177259 0)
(-0.000204226 -0.000149948 0)
(-0.000120046 -0.000122567 0)
(-5.05125e-05 -9.53737e-05 0)
(4.60536e-06 -6.86867e-05 0)
(4.57231e-05 -4.29014e-05 0)
(7.34758e-05 -1.85097e-05 0)
(8.87604e-05 3.87437e-06 0)
(9.27843e-05 2.34847e-05 0)
(8.71226e-05 3.93702e-05 0)
(7.3775e-05 5.03668e-05 0)
(5.51775e-05 5.50926e-05 0)
(3.42275e-05 5.19934e-05 0)
(1.49778e-05 3.95161e-05 0)
(3.19808e-06 1.66089e-05 0)
(3.12284e-06 -2.48441e-05 0)
(1.39857e-05 -5.51805e-05 0)
(3.05265e-05 -6.89463e-05 0)
(4.65155e-05 -6.877e-05 0)
(5.75794e-05 -5.71662e-05 0)
(6.05849e-05 -3.64388e-05 0)
(5.2933e-05 -8.59584e-06 0)
(3.24867e-05 2.46701e-05 0)
(-2.42667e-06 6.196e-05 0)
(-5.30936e-05 0.00010213 0)
(-0.000120454 0.000144252 0)
(-0.000205158 0.000187573 0)
(-0.000307609 0.000231483 0)
(-0.000427998 0.000275487 0)
(-0.000566342 0.000319184 0)
(-0.000722507 0.000362249 0)
(-0.000896234 0.000404415 0)
(-0.00108717 0.000445467 0)
(-0.00129485 0.000485228 0)
(-0.00151877 0.000523557 0)
(-0.00175835 0.000560338 0)
(-0.00201295 0.000595479 0)
(-0.00228191 0.000628907 0)
(-0.00256452 0.000660562 0)
(-0.00286006 0.000690403 0)
(-0.00316778 0.000718396 0)
(-0.0034869 0.000744517 0)
(-0.00381666 0.000768752 0)
(-0.00415627 0.000791094 0)
(-0.00450493 0.00081154 0)
(-0.00486186 0.000830095 0)
(-0.00522625 0.000846766 0)
(-0.00559732 0.000861565 0)
(-0.00597428 0.000874509 0)
(-0.00635635 0.000885616 0)
(-0.00674274 0.000894907 0)
(-0.0071327 0.000902405 0)
(-0.00752546 0.000908138 0)
(-0.00792027 0.000912132 0)
(-0.0083164 0.000914416 0)
(-0.00871311 0.00091502 0)
(-0.0091097 0.000913977 0)
(-0.00950547 0.000911319 0)
(-0.00989972 0.000907079 0)
(-0.0102918 0.000901292 0)
(-0.010681 0.000893992 0)
(-0.0110667 0.000885216 0)
(-0.0114483 0.000875 0)
(-0.0118252 0.00086338 0)
(-0.0121967 0.000850393 0)
(-0.0125623 0.000836078 0)
(-0.0129214 0.000820472 0)
(-0.0132734 0.000803613 0)
(-0.0136179 0.000785541 0)
(-0.0139543 0.000766294 0)
(-0.0142821 0.00074591 0)
(-0.0146008 0.00072443 0)
(-0.01491 0.000701893 0)
(-0.0152092 0.000678339 0)
(-0.015498 0.000653807 0)
(-0.0157759 0.000628338 0)
(-0.0160425 0.000601972 0)
(-0.0162976 0.00057475 0)
(-0.0165406 0.000546713 0)
(-0.0167713 0.000517901 0)
(-0.0169894 0.000488357 0)
(-0.0171945 0.000458121 0)
(-0.0173863 0.000427236 0)
(-0.0175646 0.000395744 0)
(-0.0177291 0.000363688 0)
(-0.0178796 0.00033111 0)
(-0.0180158 0.000298054 0)
(-0.0181376 0.000264563 0)
(-0.0182448 0.000230681 0)
(-0.0183373 0.000196451 0)
(-0.0184148 0.000161919 0)
(-0.0184772 0.000127129 0)
(-0.0185246 9.21273e-05 0)
(-0.0185567 5.69582e-05 0)
(-0.0185735 2.16683e-05 0)
(-0.018575 -1.36961e-05 0)
(-0.0185612 -4.90884e-05 0)
(-0.0185321 -8.44614e-05 0)
(-0.0184876 -0.000119768 0)
(-0.0184278 -0.000154959 0)
(-0.0183528 -0.000189988 0)
(-0.0182627 -0.000224806 0)
(-0.0181576 -0.000259363 0)
(-0.0180375 -0.000293611 0)
(-0.0179027 -0.000327499 0)
(-0.0177533 -0.000360979 0)
(-0.0175895 -0.000394 0)
(-0.0174115 -0.000426511 0)
(-0.0172196 -0.000458463 0)
(-0.0170139 -0.000489804 0)
(-0.0167948 -0.000520485 0)
(-0.0165627 -0.000550453 0)
(-0.0163177 -0.000579659 0)
(-0.0160602 -0.000608051 0)
(-0.0157907 -0.00063558 0)
(-0.0155094 -0.000662193 0)
(-0.0152168 -0.000687841 0)
(-0.0149134 -0.000712474 0)
(-0.0145996 -0.000736043 0)
(-0.0142758 -0.000758497 0)
(-0.0139425 -0.000779789 0)
(-0.0136003 -0.000799869 0)
(-0.0132497 -0.00081869 0)
(-0.0128912 -0.000836206 0)
(-0.0125255 -0.000852369 0)
(-0.0121531 -0.000867135 0)
(-0.0117746 -0.000880459 0)
(-0.0113907 -0.000892298 0)
(-0.0110019 -0.00090261 0)
(-0.0106091 -0.000911354 0)
(-0.0102128 -0.000918491 0)
(-0.00981372 -0.000923984 0)
(-0.00941264 -0.000927796 0)
(-0.00901026 -0.000929892 0)
(-0.00860731 -0.000930241 0)
(-0.00820456 -0.000928811 0)
(-0.00780277 -0.000925575 0)
(-0.00740271 -0.000920507 0)
(-0.00700518 -0.000913583 0)
(-0.00661096 -0.000904782 0)
(-0.00622086 -0.000894088 0)
(-0.00583569 -0.000881485 0)
(-0.00545626 -0.000866964 0)
(-0.00508338 -0.000850516 0)
(-0.00471786 -0.000832138 0)
(-0.00436052 -0.000811834 0)
(-0.00401217 -0.000789608 0)
(-0.0036736 -0.000765474 0)
(-0.00334561 -0.000739448 0)
(-0.00302898 -0.000711558 0)
(-0.00272447 -0.000681835 0)
(-0.00243283 -0.000650321 0)
(-0.00215478 -0.000617069 0)
(-0.00189101 -0.000582143 0)
(-0.00164218 -0.00054562 0)
(-0.00140891 -0.000507594 0)
(-0.00119177 -0.000468179 0)
(-0.000991274 -0.00042751 0)
(-0.000807858 -0.000385749 0)
(-0.000641892 -0.000343091 0)
(-0.000493647 -0.00029977 0)
(-0.000363285 -0.000256068 0)
(-0.000250838 -0.000212326 0)
(-0.000156185 -0.000168956 0)
(-7.90258e-05 -0.000126463 0)
(-1.88503e-05 -8.54592e-05 0)
(2.50994e-05 -4.66942e-05 0)
(5.38681e-05 -1.10846e-05 0)
(6.88327e-05 2.02521e-05 0)
(7.17537e-05 4.59608e-05 0)
(6.48273e-05 6.44195e-05 0)
(5.06967e-05 7.37281e-05 0)
(3.24938e-05 7.17425e-05 0)
(1.45844e-05 5.61809e-05 0)
(3.18372e-06 2.47621e-05 0)
(2.758e-06 -3.19838e-05 0)
(1.17893e-05 -6.87827e-05 0)
(2.43707e-05 -8.32505e-05 0)
(3.43665e-05 -7.92881e-05 0)
(3.73354e-05 -6.02369e-05 0)
(3.00407e-05 -2.90561e-05 0)
(9.77578e-06 1.16904e-05 0)
(-2.56809e-05 5.98273e-05 0)
(-7.81079e-05 0.000113531 0)
(-0.000148876 0.000171285 0)
(-0.000239016 0.000231835 0)
(-0.000349251 0.000294151 0)
(-0.000480037 0.000357382 0)
(-0.000631606 0.000420829 0)
(-0.000803994 0.000483917 0)
(-0.000997067 0.000546173 0)
(-0.00121055 0.000607207 0)
(-0.00144406 0.000666702 0)
(-0.00169708 0.000724392 0)
(-0.00196904 0.000780063 0)
(-0.00225929 0.000833539 0)
(-0.00256711 0.000884677 0)
(-0.00289173 0.000933361 0)
(-0.00323235 0.000979503 0)
(-0.00358812 0.00102303 0)
(-0.00395819 0.00106389 0)
(-0.00434166 0.00110203 0)
(-0.00473762 0.00113745 0)
(-0.00514517 0.00117011 0)
(-0.00556337 0.00120001 0)
(-0.0059913 0.00122716 0)
(-0.00642801 0.00125156 0)
(-0.00687259 0.00127322 0)
(-0.00732411 0.00129217 0)
(-0.00778163 0.00130843 0)
(-0.00824425 0.00132203 0)
(-0.00871106 0.001333 0)
(-0.00918115 0.00134138 0)
(-0.00965364 0.00134721 0)
(-0.0101277 0.00135053 0)
(-0.0106023 0.00135137 0)
(-0.0110768 0.00134979 0)
(-0.0115503 0.00134583 0)
(-0.0120219 0.00133955 0)
(-0.0124909 0.00133098 0)
(-0.0129565 0.00132019 0)
(-0.0134178 0.00130722 0)
(-0.0138743 0.00129212 0)
(-0.014325 0.00127496 0)
(-0.0147694 0.00125578 0)
(-0.0152066 0.00123463 0)
(-0.0156361 0.00121158 0)
(-0.0160572 0.00118669 0)
(-0.0164691 0.00116 0)
(-0.0168715 0.00113157 0)
(-0.0172635 0.00110146 0)
(-0.0176446 0.00106974 0)
(-0.0180144 0.00103645 0)
(-0.0183721 0.00100166 0)
(-0.0187174 0.000965428 0)
(-0.0190498 0.000927808 0)
(-0.0193686 0.000888862 0)
(-0.0196736 0.000848652 0)
(-0.0199642 0.000807236 0)
(-0.02024 0.000764677 0)
(-0.0205007 0.000721035 0)
(-0.0207459 0.000676371 0)
(-0.0209753 0.000630749 0)
(-0.0211884 0.00058423 0)
(-0.021385 0.000536877 0)
(-0.0215649 0.000488755 0)
(-0.0217277 0.000439927 0)
(-0.0218733 0.000390456 0)
(-0.0220014 0.000340409 0)
(-0.0221118 0.000289849 0)
(-0.0222044 0.000238844 0)
(-0.0222789 0.00018746 0)
(-0.0223354 0.000135764 0)
(-0.0223737 8.38221e-05 0)
(-0.0223937 3.17041e-05 0)
(-0.0223954 -2.05221e-05 0)
(-0.0223787 -7.27873e-05 0)
(-0.0223437 -0.000125022 0)
(-0.0222904 -0.000177156 0)
(-0.0222188 -0.000229118 0)
(-0.022129 -0.000280837 0)
(-0.0220211 -0.000332241 0)
(-0.0218952 -0.000383259 0)
(-0.0217516 -0.000433817 0)
(-0.0215902 -0.000483842 0)
(-0.0214115 -0.000533261 0)
(-0.0212155 -0.000581999 0)
(-0.0210026 -0.000629983 0)
(-0.020773 -0.000677138 0)
(-0.0205271 -0.000723389 0)
(-0.020265 -0.000768662 0)
(-0.0199874 -0.000812882 0)
(-0.0196944 -0.000855973 0)
(-0.0193865 -0.000897863 0)
(-0.0190642 -0.000938475 0)
(-0.0187279 -0.000977735 0)
(-0.0183781 -0.00101557 0)
(-0.0180153 -0.0010519 0)
(-0.0176401 -0.00108667 0)
(-0.017253 -0.00111979 0)
(-0.0168546 -0.00115119 0)
(-0.0164455 -0.0011808 0)
(-0.0160263 -0.00120856 0)
(-0.0155978 -0.00123439 0)
(-0.0151606 -0.00125823 0)
(-0.0147154 -0.00128001 0)
(-0.014263 -0.00129967 0)
(-0.013804 -0.00131714 0)
(-0.0133393 -0.00133235 0)
(-0.0128696 -0.00134527 0)
(-0.0123958 -0.00135581 0)
(-0.0119187 -0.00136394 0)
(-0.0114392 -0.0013696 0)
(-0.0109581 -0.00137273 0)
(-0.0104762 -0.0013733 0)
(-0.00999455 -0.00137125 0)
(-0.00951399 -0.00136655 0)
(-0.00903544 -0.00135917 0)
(-0.00855984 -0.00134906 0)
(-0.00808813 -0.00133621 0)
(-0.00762125 -0.00132058 0)
(-0.00716016 -0.00130215 0)
(-0.00670582 -0.00128092 0)
(-0.00625917 -0.00125688 0)
(-0.00582119 -0.00123002 0)
(-0.00539281 -0.00120035 0)
(-0.004975 -0.00116788 0)
(-0.00456869 -0.00113263 0)
(-0.0041748 -0.00109464 0)
(-0.00379425 -0.00105395 0)
(-0.00342792 -0.0010106 0)
(-0.00307669 -0.000964666 0)
(-0.00274138 -0.000916229 0)
(-0.0024228 -0.000865389 0)
(-0.00212169 -0.000812265 0)
(-0.00183877 -0.000757001 0)
(-0.00157469 -0.000699768 0)
(-0.00133001 -0.000640772 0)
(-0.00110524 -0.000580255 0)
(-0.000900776 -0.000518507 0)
(-0.000716915 -0.000455873 0)
(-0.000553823 -0.000392763 0)
(-0.000411517 -0.000329672 0)
(-0.000289845 -0.000267188 0)
(-0.000188455 -0.000206021 0)
(-0.000106768 -0.000147024 0)
(-4.39425e-05 -9.12223e-05 0)
(1.16445e-06 -3.9851e-05 0)
(3.00346e-05 5.61041e-06 0)
(4.45367e-05 4.33974e-05 0)
(4.69752e-05 7.14252e-05 0)
(4.0107e-05 8.72636e-05 0)
(2.71981e-05 8.81439e-05 0)
(1.27183e-05 7.09891e-05 0)
(2.87879e-06 3.22785e-05 0)
(2.21291e-06 -3.76724e-05 0)
(8.55466e-06 -7.85945e-05 0)
(1.55548e-05 -9.15541e-05 0)
(1.75078e-05 -8.1581e-05 0)
(1.01066e-05 -5.28206e-05 0)
(-9.90734e-06 -8.87937e-06 0)
(-4.52481e-05 4.713e-05 0)
(-9.81679e-05 0.000112556 0)
(-0.00017047 0.000185155 0)
(-0.000263573 0.000263038 0)
(-0.000378544 0.000344622 0)
(-0.000516144 0.000428586 0)
(-0.000676863 0.000513828 0)
(-0.00086095 0.000599429 0)
(-0.00106845 0.000684628 0)
(-0.00129923 0.000768787 0)
(-0.001553 0.000851379 0)
(-0.00182932 0.000931966 0)
(-0.00212767 0.00101018 0)
(-0.00244741 0.00108573 0)
(-0.0027878 0.00115836 0)
(-0.00314808 0.00122788 0)
(-0.00352738 0.0012941 0)
(-0.00392481 0.00135691 0)
(-0.00433943 0.0014162 0)
(-0.00477026 0.00147188 0)
(-0.00521631 0.0015239 0)
(-0.00567656 0.00157221 0)
(-0.00614997 0.00161678 0)
(-0.00663549 0.00165761 0)
(-0.00713207 0.00169468 0)
(-0.00763866 0.001728 0)
(-0.00815418 0.00175759 0)
(-0.0086776 0.00178348 0)
(-0.00920784 0.00180569 0)
(-0.00974386 0.00182426 0)
(-0.0102846 0.00183923 0)
(-0.0108291 0.00185065 0)
(-0.0113763 0.00185857 0)
(-0.0119252 0.00186304 0)
(-0.0124748 0.00186412 0)
(-0.0130241 0.00186187 0)
(-0.0135722 0.00185635 0)
(-0.0141181 0.00184763 0)
(-0.014661 0.00183578 0)
(-0.0151998 0.00182085 0)
(-0.0157338 0.00180294 0)
(-0.016262 0.00178209 0)
(-0.0167836 0.0017584 0)
(-0.0172978 0.00173193 0)
(-0.0178037 0.00170275 0)
(-0.0183007 0.00167095 0)
(-0.0187879 0.0016366 0)
(-0.0192646 0.00159978 0)
(-0.0197301 0.00156056 0)
(-0.0201837 0.00151903 0)
(-0.0206247 0.00147527 0)
(-0.0210524 0.00142935 0)
(-0.0214664 0.00138135 0)
(-0.0218658 0.00133137 0)
(-0.0222503 0.00127947 0)
(-0.0226191 0.00122574 0)
(-0.0229719 0.00117027 0)
(-0.0233081 0.00111314 0)
(-0.0236272 0.00105442 0)
(-0.0239287 0.000994217 0)
(-0.0242123 0.000932602 0)
(-0.0244775 0.000869665 0)
(-0.024724 0.000805491 0)
(-0.0249514 0.000740169 0)
(-0.0251594 0.000673784 0)
(-0.0253477 0.000606427 0)
(-0.025516 0.000538185 0)
(-0.025664 0.000469148 0)
(-0.0257916 0.000399407 0)
(-0.0258986 0.000329052 0)
(-0.0259848 0.000258176 0)
(-0.02605 0.000186872 0)
(-0.0260941 0.000115232 0)
(-0.0261171 4.33502e-05 0)
(-0.0261189 -2.86779e-05 0)
(-0.0260995 -0.000100757 0)
(-0.0260588 -0.000172791 0)
(-0.025997 -0.000244684 0)
(-0.025914 -0.000316337 0)