/*--------------------------------*- C++ -*----------------------------------*\
  =========                 |
  \\      /  F ield         | OpenFOAM: The Open Source CFD Toolbox
   \\    /   O peration     | Website:  https://openfoam.org
    \\  /    A nd           | Version:  7
     \\/     M anipulation  |
\*---------------------------------------------------------------------------*/
FoamFile
{
    version     2.0;
    format      ascii;
    class       volScalarField;
    location    "0.1";
    object      p;
}
// * * * * * * * * * * * * * * * * * * * * * * * * * * * * * * * * * * * * * //

dimensions      [0 2 -2 0 0 0 0];

internalField   nonuniform List<scalar> 
25600
(
-9.87775e-08
0.000103786
0.000108093
-6.21074e-05
-0.000396685
-0.000874345
-0.00147679
-0.00218644
-0.00298673
-0.00386265
-0.00480053
-0.00578742
-0.00681143
-0.00786166
-0.00892881
-0.0100046
-0.0110807
-0.0121494
-0.0132036
-0.0142365
-0.0152426
-0.0162171
-0.0171543
-0.0180491
-0.0188973
-0.0196946
-0.0204377
-0.0211237
-0.0217494
-0.0223122
-0.02281
-0.0232408
-0.0236025
-0.0238942
-0.0241146
-0.0242625
-0.0243373
-0.0243385
-0.0242655
-0.0241179
-0.0238955
-0.0235986
-0.0232272
-0.0227816
-0.0222622
-0.0216697
-0.0210048
-0.0202686
-0.0194622
-0.0185869
-0.0176434
-0.016633
-0.0155568
-0.0144165
-0.0132136
-0.0119498
-0.0106268
-0.00924638
-0.00781023
-0.0063201
-0.00477798
-0.00318591
-0.0015458
0.000140312
0.00187007
0.00364109
0.00545112
0.00729803
0.00917954
0.0110931
0.0130361
0.0150062
0.0170009
0.0190176
0.0210536
0.0231062
0.0251728
0.0272506
0.0293365
0.0314279
0.0335221
0.0356164
0.0377079
0.0397934
0.0418702
0.0439356
0.0459871
0.048022
0.0500375
0.0520307
0.0539989
0.0559395
0.0578499
0.0597275
0.0615697
0.0633739
0.0651375
0.0668577
0.0685322
0.0701585
0.0717347
0.0732584
0.0747275
0.0761394
0.0774921
0.0787835
0.080012
0.0811759
0.0822734
0.0833029
0.0842627
0.0851513
0.0859674
0.0867097
0.087377
0.0879686
0.0884835
0.0889212
0.0892811
0.0895627
0.0897658
0.0898906
0.0899375
0.089907
0.0897999
0.0896173
0.0893603
0.0890303
0.0886289
0.0881578
0.0876192
0.0870152
0.0863487
0.0856228
0.084841
0.084007
0.0831246
0.0821983
0.0812326
0.0802329
0.0792048
0.0781547
0.077089
0.0760149
0.0749403
0.0738735
0.0728235
0.0718001
0.0708137
0.0698757
0.0689981
0.0681943
0.0674781
0.0668639
0.066366
0.0659974
0.0657675
0.0656781
0.0657187
0.0658347
-0.000109762
-5.19752e-05
-9.5822e-05
-0.000281011
-0.000595881
-0.0010281
-0.00156854
-0.00220505
-0.00292466
-0.00371549
-0.00456561
-0.00546373
-0.00639898
-0.00736137
-0.00834166
-0.00933183
-0.0103244
-0.0113123
-0.0122882
-0.0132459
-0.0141798
-0.0150847
-0.0159558
-0.0167882
-0.0175772
-0.0183192
-0.0190108
-0.0196486
-0.0202298
-0.0207521
-0.0212132
-0.0216108
-0.0219436
-0.0222099
-0.0224085
-0.0225382
-0.0225982
-0.022588
-0.0225069
-0.0223546
-0.0221307
-0.0218353
-0.0214686
-0.0210308
-0.0205224
-0.0199441
-0.0192963
-0.0185799
-0.0177959
-0.0169452
-0.016029
-0.0150484
-0.0140048
-0.0128993
-0.0117335
-0.0105088
-0.00922696
-0.00788969
-0.00649856
-0.00505538
-0.00356208
-0.00202057
-0.000432653
0.00119962
0.00287392
0.00458801
0.00633983
0.00812723
0.0099479
0.0117994
0.0136793
0.0155854
0.0175152
0.0194661
0.0214357
0.0234214
0.0254205
0.0274303
0.029448
0.031471
0.0334968
0.0355226
0.0375457
0.0395629
0.0415717
0.0435695
0.045554
0.0475224
0.0494719
0.0513998
0.0533036
0.0551808
0.0570287
0.0588448
0.0606269
0.0623722
0.0640782
0.0657423
0.0673622
0.0689356
0.0704606
0.0719351
0.0733567
0.0747232
0.0760325
0.0772828
0.0784725
0.0795999
0.0806634
0.0816614
0.0825924
0.083455
0.084248
0.08497
0.0856201
0.0861974
0.0867015
0.0871316
0.0874873
0.087768
0.0879738
0.0881048
0.0881615
0.0881446
0.0880549
0.0878932
0.0876609
0.0873594
0.0869904
0.0865556
0.0860569
0.0854966
0.0848777
0.0842031
0.0834764
0.082701
0.0818808
0.08102
0.0801233
0.0791958
0.0782429
0.0772708
0.0762856
0.0752943
0.0743043
0.0733235
0.0723603
0.0714239
0.0705237
0.06967
0.0688735
0.0681458
0.0674984
0.066943
0.0664905
0.0661499
0.0659267
0.065821
0.0658352
0.0659504
-0.000158804
-9.98856e-05
-0.000155455
-0.000341804
-0.000640438
-0.00104228
-0.00154087
-0.00212668
-0.00278948
-0.00351849
-0.00430362
-0.00513498
-0.00600251
-0.00689717
-0.00781021
-0.00873358
-0.00966031
-0.0105837
-0.0114973
-0.012395
-0.0132707
-0.0141196
-0.0149371
-0.0157186
-0.0164596
-0.0171565
-0.0178057
-0.0184041
-0.018949
-0.0194378
-0.0198684
-0.0202387
-0.0205472
-0.0207922
-0.0209726
-0.021087
-0.0211346
-0.0211148
-0.0210269
-0.0208705
-0.0206454
-0.0203514
-0.0199885
-0.0195571
-0.0190578
-0.018491
-0.0178574
-0.0171576
-0.0163924
-0.0155626
-0.0146692
-0.0137136
-0.0126971
-0.0116209
-0.0104861
-0.00929441
-0.0080473
-0.00674635
-0.00539319
-0.00398963
-0.00253753
-0.00103861
0.000505324
0.00209214
0.0037196
0.00538563
0.00708831
0.00882553
0.0105949
0.012394
0.0142207
0.0160727
0.0179477
0.0198432
0.0217568
0.023686
0.0256283
0.0275808
0.0295409
0.0315063
0.0334744
0.0354426
0.0374079
0.0393675
0.041319
0.04326
0.045188
0.0471004
0.0489944
0.0508674
0.0527171
0.0545408
0.0563362
0.0581007
0.0598322
0.061528
0.0631857
0.0648026
0.0663766
0.0679057
0.0693878
0.0708209
0.0722027
0.073531
0.0748039
0.0760198
0.077177
0.0782739
0.0793089
0.0802805
0.0811875
0.0820284
0.082802
0.0835072
0.0841429
0.0847086
0.0852037
0.0856276
0.0859798
0.0862598
0.0864678
0.086604
0.086669
0.0866633
0.0865878
0.0864435
0.0862316
0.0859537
0.0856113
0.0852061
0.0847402
0.0842157
0.0836356
0.083003
0.0823211
0.0815934
0.0808236
0.0800159
0.0791748
0.0783053
0.0774128
0.0765028
0.0755815
0.0746555
0.0737319
0.0728181
0.0719221
0.0710521
0.0702171
0.0694263
0.0686894
0.0680165
0.0674178
0.0669031
0.0664814
0.0661604
0.0659446
0.065836
0.0658499
0.0659906
-0.000113531
-4.35049e-05
-9.74259e-05
-0.000277887
-0.000562502
-0.000942962
-0.00141285
-0.00196345
-0.00258522
-0.00326891
-0.00400548
-0.00478549
-0.00560049
-0.00644165
-0.00730076
-0.00817068
-0.00904428
-0.00991511
-0.0107774
-0.0116249
-0.0124522
-0.0132545
-0.0140271
-0.0147655
-0.015466
-0.0161244
-0.0167376
-0.0173026
-0.0178163
-0.0182766
-0.018681
-0.0190278
-0.0193151
-0.0195416
-0.0197061
-0.019807
-0.0198438
-0.0198155
-0.0197216
-0.0195616
-0.0193354
-0.0190425
-0.0186832
-0.0182576
-0.0177661
-0.0172092
-0.0165877
-0.0159023
-0.0151535
-0.0143421
-0.0134691
-0.0125356
-0.011543
-0.0104923
-0.00938487
-0.00822221
-0.00700571
-0.00573684
-0.00441727
-0.00304879
-0.00163308
-0.000171767
0.00133329
0.00287987
0.00446585
0.0060894
0.00774861
0.00944135
0.0111653
0.0129181
0.0146977
0.016502
0.0183285
0.020175
0.0220391
0.0239184
0.0258102
0.027712
0.0296213
0.0315359
0.0334531
0.0353703
0.0372846
0.0391934
0.0410944
0.0429852
0.0448634
0.0467263
0.0485714
0.0503961
0.052198
0.0539747
0.0557238
0.057443
0.05913
0.0607824
0.0623974
0.0639727
0.0655064
0.0669965
0.068441
0.0698378
0.0711845
0.0724793
0.0737202
0.0749059
0.0760345
0.0771047
0.0781147
0.0790633
0.0799492
0.0807711
0.0815278
0.0822182
0.0828415
0.083397
0.0838843
0.0843027
0.0846518
0.0849313
0.0851412
0.085282
0.085354
0.085358
0.0852947
0.0851652
0.0849708
0.0847131
0.0843935
0.0840137
0.0835756
0.0830816
0.0825346
0.0819375
0.0812935
0.080606
0.0798786
0.0791154
0.0783208
0.0774996
0.0766569
0.0757982
0.0749291
0.0740562
0.073186
0.0723257
0.0714827
0.0706646
0.0698796
0.0691363
0.0684435
0.0678103
0.0672457
0.0667586
0.066357
0.0660484
0.0658376
0.0657288
0.0657453
0.0659018
5.32592e-05
0.000122041
6.50914e-05
-0.000113076
-0.000389812
-0.000755973
-0.00120509
-0.00172876
-0.00231842
-0.00296561
-0.00366183
-0.00439906
-0.00516892
-0.00596347
-0.00677564
-0.00759807
-0.00842425
-0.00924824
-0.0100642
-0.0108664
-0.0116497
-0.0124093
-0.0131406
-0.0138397
-0.0145025
-0.0151254
-0.0157053
-0.0162389
-0.0167237
-0.0171574
-0.0175375
-0.0178622
-0.0181299
-0.0183392
-0.0184885
-0.0185768
-0.0186033
-0.018567
-0.0184674
-0.0183041
-0.0180766
-0.0177849
-0.017429
-0.0170091
-0.0165252
-0.015978
-0.0153681
-0.0146964
-0.0139632
-0.0131694
-0.0123159
-0.0114038
-0.0104341
-0.00940799
-0.00832686
-0.00719209
-0.00600498
-0.00476699
-0.00347982
-0.00214512
-0.000764389
0.000660696
0.00212819
0.00363598
0.00518211
0.00676483
0.0083822
0.010032
0.0117121
0.0134205
0.0151549
0.0169131
0.0186931
0.0204924
0.022309
0.0241403
0.0259837
0.0278367
0.0296973
0.031563
0.0334313
0.0352994
0.0371647
0.0390247
0.0408773
0.04272
0.0445503
0.0463658
0.0481639
0.0499422
0.0516983
0.0534298
0.0551344
0.0568102
0.0584546
0.0600651
0.0616393
0.0631748
0.0646698
0.0661225
0.0675309
0.0688928
0.070206
0.0714687
0.0726792
0.0738359
0.0749372
0.0759817
0.0769679
0.0778946
0.0787605
0.0795642
0.0803048
0.0809811
0.0815925
0.0821385
0.0826184
0.0830315
0.0833775
0.0836563
0.0838681
0.084013
0.0840917
0.0841046
0.0840527
0.083937
0.0837591
0.0835201
0.0832217
0.0828653
0.0824531
0.0819874
0.081471
0.0809067
0.0802977
0.0796471
0.0789586
0.0782361
0.077484
0.0767067
0.075909
0.0750963
0.074274
0.0734482
0.0726253
0.0718118
0.0710146
0.0702409
0.0694982
0.0687944
0.0681375
0.0675358
0.0669974
0.0665302
0.0661419
0.0658397
0.0656288
0.065515
0.065524
0.065674
0.000355507
0.000406116
0.000335597
0.000151492
-0.000125103
-0.000484759
-0.000921315
-0.0014266
-0.0019925
-0.00261119
-0.00327533
-0.0039773
-0.00470957
-0.00546493
-0.00623633
-0.0070175
-0.00780221
-0.00858465
-0.00935933
-0.0101212
-0.0108649
-0.0115858
-0.01228
-0.0129434
-0.0135719
-0.0141623
-0.0147116
-0.0152164
-0.0156746
-0.0160834
-0.0164412
-0.0167456
-0.0169951
-0.0171883
-0.0173238
-0.0174004
-0.0174173
-0.0173737
-0.017269
-0.0171026
-0.0168742
-0.0165836
-0.016231
-0.0158163
-0.0153398
-0.014802
-0.0142036
-0.0135449
-0.0128266
-0.0120496
-0.0112147
-0.0103229
-0.00937518
-0.0083727
-0.00731676
-0.00620861
-0.00504962
-0.00384128
-0.00258514
-0.00128269
6.45961e-05
0.00145494
0.00288636
0.00435699
0.00586504
0.0074087
0.008986
0.0105948
0.0122331
0.0138988
0.01559
0.0173043
0.0190397
0.0207942
0.0225653
0.0243506
0.0261478
0.0279545
0.0297686
0.0315877
0.0334092
0.0352304
0.037049
0.0388626
0.0406689
0.0424656
0.0442502
0.0460204
0.0477737
0.0495077
0.0512201
0.0529085
0.0545709
0.0562051
0.0578088
0.0593794
0.0609145
0.062412
0.0638703
0.0652875
0.0666614
0.06799
0.0692712
0.0705035
0.071685
0.0728143
0.0738897
0.0749099
0.0758735
0.0767794
0.0776263
0.0784129
0.0791381
0.0798011
0.0804014
0.0809382
0.081411
0.0818191
0.0821622
0.0824403
0.0826535
0.0828023
0.082887
0.0829081
0.0828667
0.0827638
0.0826009
0.0823792
0.0821001
0.0817654
0.0813769
0.0809372
0.0804488
0.0799145
0.0793373
0.0787203
0.0780671
0.0773814
0.0766674
0.0759293
0.0751719
0.0743999
0.0736189
0.0728344
0.0720525
0.0712793
0.0705212
0.0697847
0.0690768
0.0684049
0.0677763
0.0671984
0.0666786
0.0662241
0.0658421
0.0655397
0.0653224
0.0651964
0.0651864
0.0653093
0.000790153
0.000805239
0.00071002
0.000511064
0.00022638
-0.00013497
-0.000566549
-0.00106152
-0.00161178
-0.00221018
-0.00284986
-0.00352412
-0.00422615
-0.0049493
-0.00568683
-0.00643305
-0.00718203
-0.00792833
-0.00866716
-0.00939328
-0.0101021
-0.0107889
-0.0114498
-0.012081
-0.0126789
-0.0132403
-0.0137617
-0.0142407
-0.0146745
-0.0150611
-0.0153983
-0.0156841
-0.015917
-0.0160956
-0.0162184
-0.0162843
-0.0162925
-0.0162421
-0.0161328
-0.0159637
-0.0157347
-0.0154455
-0.0150961
-0.0146864
-0.0142169
-0.0136881
-0.0131004
-0.0124542
-0.0117502
-0.0109892
-0.010172
-0.00929944
-0.00837258
-0.00739256
-0.00636052
-0.00527766
-0.00414542
-0.00296529
-0.0017386
-0.000466707
0.000848788
0.00220607
0.00360325
0.00503862
0.00651055
0.00801713
0.00955634
0.0111262
0.0127249
0.0143503
0.0160004
0.0176731
0.0193665
0.0210783
0.0228064
0.0245482
0.0263016
0.0280645
0.0298347
0.0316096
0.0333868
0.0351637
0.0369381
0.0387077
0.0404704
0.0422235
0.0439649
0.0456922
0.0474031
0.0490951
0.050766
0.0524137
0.0540361
0.055631
0.0571961
0.0587288
0.060227
0.0616887
0.0631123
0.0644958
0.0658371
0.0671343
0.0683855
0.069589
0.0707433
0.0718467
0.0728977
0.0738951
0.0748376
0.0757239
0.076553
0.0773234
0.0780343
0.078685
0.0792747
0.0798029
0.0802689
0.0806721
0.0810124
0.0812897
0.0815043
0.0816563
0.0817463
0.0817748
0.0817429
0.0816516
0.0815023
0.0812963
0.0810348
0.0807195
0.0803526
0.0799363
0.0794731
0.0789658
0.0784172
0.0778302
0.0772084
0.0765555
0.0758752
0.0751717
0.0744494
0.0737129
0.0729675
0.0722184
0.0714714
0.0707319
0.070006
0.0692998
0.0686196
0.0679722
0.0673644
0.0668029
0.0662946
0.0658458
0.0654632
0.0651537
0.0649228
0.064777
0.0647371
0.0648166
0.00134665
0.00131131
0.00118103
0.000958652
0.000657914
0.000287147
-0.000147296
-0.000638767
-0.00118072
-0.00176627
-0.00238862
-0.00304211
-0.00372061
-0.00441755
-0.00512773
-0.00584503
-0.00656395
-0.00727954
-0.00798731
-0.00868248
-0.00936058
-0.0100173
-0.0106488
-0.0112516
-0.0118221
-0.0123573
-0.012854
-0.0133097
-0.0137216
-0.0140881
-0.0144067
-0.0146757
-0.0148935
-0.0150587
-0.01517
-0.0152262
-0.0152265
-0.0151702
-0.0150566
-0.0148852
-0.0146558
-0.0143681
-0.0140218
-0.0136172
-0.0131545
-0.0126342
-0.0120567
-0.0114224
-0.0107321
-0.00998631
-0.00918584
-0.00833157
-0.00742456
-0.00646581
-0.00545641
-0.00439761
-0.00329083
-0.00213744
-0.000938627
0.00030428
0.00158953
0.00291534
0.00428012
0.00568219
0.00711981
0.00859117
0.0100943
0.0116273
0.0131885
0.0147757
0.0163869
0.0180203
0.0196739
0.0213455
0.0230327
0.0247334
0.0264455
0.028167
0.0298956
0.0316288
0.033364
0.035099
0.0368317
0.0385598
0.040281
0.041993
0.0436935
0.0453803
0.0470511
0.0487034
0.0503351
0.0519442
0.0535288
0.0550865
0.056615
0.058112
0.0595753
0.0610033
0.0623941
0.0637458
0.0650563
0.0663239
0.0675469
0.0687234
0.069852
0.0709311
0.0719592
0.0729352
0.0738579
0.074726
0.0755382
0.0762935
0.076991
0.07763
0.0782099
0.0787299
0.0791894
0.079588
0.0799254
0.0802019
0.0804174
0.0805724
0.080667
0.0807021
0.0806787
0.0805979
0.0804608
0.0802687
0.080023
0.0797253
0.0793777
0.0789824
0.0785419
0.0780586
0.0775354
0.0769751
0.0763811
0.0757569
0.0751062
0.0744328
0.0737408
0.0730349
0.0723198
0.0716006
0.0708825
0.0701708
0.0694708
0.0687884
0.0681294
0.0674999
0.0669062
0.0663544
0.0658507
0.065401
0.0650116
0.0646886
0.0644374
0.0642643
0.0641851
0.0642083
0.00201163
0.0019143
0.00173949
0.00148651
0.00116237
0.000775132
0.000331045
-0.000163952
-0.000704167
-0.00128313
-0.00189511
-0.00253422
-0.00319507
-0.00387221
-0.00456028
-0.00525411
-0.00594849
-0.0066386
-0.00731989
-0.00798851
-0.00864012
-0.00927064
-0.00987636
-0.010454
-0.0110004
-0.0115122
-0.0119869
-0.0124217
-0.0128142
-0.0131625
-0.0134645
-0.0137184
-0.0139226
-0.0140757
-0.0141765
-0.014224
-0.0142173
-0.0141556
-0.0140383
-0.013865
-0.0136354
-0.0133491
-0.013006
-0.0126063
-0.0121503
-0.0116382
-0.0110704
-0.0104475
-0.0097701
-0.00903878
-0.00825424
-0.00741738
-0.00652919
-0.00559059
-0.00460266
-0.00356675
-0.00248415
-0.00135601
-0.000183555
0.00103178
0.0022883
0.00358432
0.00491839
0.00628894
0.00769409
0.00913202
0.010601
0.0120992
0.0136248
0.0151759
0.0167504
0.0183466
0.0199626
0.021596
0.0232447
0.0249065
0.0265797
0.0282621
0.0299513
0.0316449
0.0333405
0.0350361
0.0367294
0.0384183
0.0401003
0.0417734
0.0434353
0.0450838
0.0467166
0.0483314
0.0499261
0.0514989
0.0530477
0.0545702
0.0560642
0.0575274
0.0589579
0.060354
0.0617139
0.0630356
0.0643172
0.065557
0.0667534
0.0679046
0.0690091
0.0700653
0.071072
0.072028
0.0729322
0.0737831
0.0745796
0.0753206
0.0760056
0.0766337
0.0772043
0.0777166
0.0781699
0.078564
0.0788987
0.0791741
0.0793903
0.0795476
0.0796463
0.0796872
0.0796714
0.0795999
0.0794737
0.0792941
0.0790624
0.0787804
0.07845
0.0780734
0.0776529
0.0771909
0.0766901
0.0761533
0.0755836
0.0749845
0.0743593
0.0737117
0.0730457
0.0723656
0.071676
0.0709816
0.0702871
0.0695974
0.0689176
0.0682531
0.0676093
0.0669918
0.0664061
0.0658579
0.0653527
0.0648962
0.0644939
0.0641513
0.0638737
0.063667
0.0635405
0.0634979
0.00277088
0.0026024
0.00237604
0.00208584
0.00173207
0.00132237
0.000862333
0.000357486
-0.000186701
-0.000765322
-0.00137259
-0.00200333
-0.00265257
-0.00331521
-0.00398643
-0.00466185
-0.00533651
-0.00600567
-0.00666538
-0.00731167
-0.00794071
-0.00854869
-0.00913222
-0.00968803
-0.0102131
-0.0107045
-0.0111597
-0.0115761
-0.0119514
-0.0122834
-0.0125707
-0.012811
-0.013003
-0.0131453
-0.0132368
-0.0132764
-0.0132634
-0.013197
-0.0130766
-0.0129019
-0.0126722
-0.0123874
-0.0120475
-0.0116527
-0.0112029
-0.0106986
-0.0101401
-0.00952813
-0.00886301
-0.00814536
-0.00737595
-0.00655561
-0.00568518
-0.00476563
-0.0037981
-0.00278387
-0.00172411
-0.000619829
0.0005277
0.00171688
0.00294614
0.00421406
0.00551916
0.0068598
0.0082342
0.00964058
0.0110773
0.0125426
0.0140346
0.0155515
0.0170914
0.0186526
0.0202329
0.0218302
0.0234425
0.0250678
0.0267042
0.0283497
0.0300017
0.0316579
0.0333162
0.0349746
0.0366308
0.0382826
0.0399277
0.0415641
0.0431896
0.044802
0.0463989
0.0479783
0.0495382
0.0510768
0.0525918
0.0540811
0.0555425
0.056974
0.0583737
0.0597399
0.0610707
0.0623641
0.0636186
0.0648324
0.0660038
0.0671313
0.0682131
0.069248
0.0702347
0.071172
0.0720587
0.0728936
0.0736753
0.0744031
0.0750763
0.0756942
0.076256
0.0767609
0.0772083
0.0775981
0.07793
0.0782043
0.0784208
0.07858
0.0786822
0.0787282
0.0787191
0.0786557
0.0785392
0.0783705
0.0781513
0.0778831
0.077568
0.0772079
0.076805
0.0763616
0.0758802
0.0753638
0.0748153
0.0742377
0.0736343
0.0730085
0.0723642
0.0717055
0.0710368
0.0703623
0.0696864
0.0690137
0.0683488
0.0676968
0.0670627
0.0664515
0.0658684
0.0653183
0.0648062
0.0643373
0.0639167
0.0635493
0.0632399
0.0629939
0.0628142
0.0626987
0.00361056
0.00336445
0.00308063
0.00274759
0.0023591
0.00192148
0.00144033
0.000920484
0.000366394
-0.00021696
-0.000824894
-0.00145251
-0.00209543
-0.00274868
-0.00340823
-0.00406993
-0.00472925
-0.00538193
-0.00602415
-0.00665216
-0.00726238
-0.00785145
-0.00841609
-0.00895329
-0.00946002
-0.00993374
-0.0103719
-0.0107722
-0.0111322
-0.0114501
-0.0117241
-0.0119525
-0.0121337
-0.0122664
-0.0123496
-0.0123823
-0.0123637
-0.0122932
-0.0121702
-0.0119943
-0.0117648
-0.0114818
-0.0111451
-0.0107549
-0.0103111
-0.0098143
-0.00926481
-0.00866309
-0.00800958
-0.0073049
-0.0065498
-0.00574504
-0.00489138
-0.00398984
-0.00304164
-0.00204786
-0.00100953
7.22353e-05
0.00119609
0.00236054
0.00356413
0.00480555
0.00608332
0.00739569
0.00874098
0.0101176
0.0115239
0.0129581
0.0144184
0.0159031
0.0174104
0.0189384
0.0204852
0.0220484
0.0236264
0.0252173
0.0268191
0.0284296
0.0300465
0.0316676
0.0332908
0.0349141
0.0365353
0.0381521
0.0397625
0.0413644
0.0429556
0.044534
0.0460972
0.0476434
0.0491706
0.0506769
0.0521603
0.0536184
0.0550492
0.056451
0.0578218
0.0591598
0.0604633
0.0617304
0.0629594
0.0641489
0.065297
0.0664022
0.0674628
0.0684778
0.0694458
0.0703657
0.0712361
0.0720559
0.0728238
0.0735392
0.0742015
0.0748097
0.0753631
0.0758609
0.0763028
0.0766884
0.0770176
0.0772905
0.0775071
0.0776677
0.0777728
0.0778233
0.07782
0.0777637
0.0776555
0.0774965
0.0772881
0.0770321
0.0767303
0.0763845
0.0759968
0.0755695
0.075105
0.074606
0.0740754
0.073516
0.0729308
0.0723232
0.0716967
0.0710553
0.0704031
0.069744
0.0690822
0.0684217
0.0677669
0.0671224
0.0664929
0.0658831
0.0652974
0.0647404
0.0642166
0.0637306
0.0632869
0.0628898
0.062544
0.0622542
0.0620165
0.0618233
0.00451767
0.00418946
0.00384369
0.0034636
0.00303541
0.00256546
0.00205858
0.00151892
0.000950405
0.000357361
-0.000255927
-0.000885261
-0.00152648
-0.00217527
-0.0028277
-0.00348007
-0.00412831
-0.00476861
-0.00539714
-0.0060106
-0.00660558
-0.00717902
-0.00772784
-0.00824935
-0.00874066
-0.0091993
-0.00962288
-0.0100093
-0.0103561
-0.0106616
-0.0109241
-0.0111419
-0.0113135
-0.0114378
-0.0115139
-0.0115406
-0.0115171
-0.0114431
-0.011318
-0.0111411
-0.0109122
-0.010631
-0.0102975
-0.00991174
-0.00947384
-0.0089842
-0.00844319
-0.00785117
-0.00720867
-0.0065163
-0.00577467
-0.0049845
-0.00414669
-0.00326222
-0.00233219
-0.0013576
-0.000339426
0.000721098
0.00182257
0.00296371
0.00414321
0.00535968
0.00661161
0.00789735
0.00921527
0.0105639
0.0119415
0.0133465
0.0147769
0.0162313
0.0177079
0.0192047
0.0207197
0.0222509
0.0237967
0.0253552
0.0269243
0.0285019
0.0300858
0.0316738
0.0332641
0.0348544
0.0364426
0.0380265
0.0396043
0.0411738
0.0427328
0.0442792
0.0458108
0.0473258
0.0488224
0.0502986
0.0517521
0.053181
0.0545834
0.0559574
0.0573012
0.0586129
0.0598908
0.0611333
0.0623387
0.0635054
0.0646318
0.0657161
0.066757
0.0677534
0.0687041
0.0696076
0.0704628
0.0712684
0.0720235
0.0727274
0.0733793
0.0739784
0.0745238
0.075015
0.0754515
0.0758331
0.0761596
0.076431
0.0766473
0.076809
0.0769166
0.0769708
0.0769724
0.0769223
0.0768212
0.0766705
0.0764716
0.0762262
0.0759358
0.0756023
0.0752276
0.074814
0.0743637
0.0738795
0.0733638
0.0728195
0.0722492
0.0716561
0.0710438
0.0704159
0.0697762
0.0691283
0.0684761
0.0678234
0.0671743
0.066533
0.0659037
0.0652904
0.0646976
0.0641292
0.0635892
0.0630818
0.0626109
0.0621801
0.0617938
0.0614565
0.0611575
0.0608833
0.00548005
0.00506698
0.00465629
0.00422527
0.00375376
0.00324748
0.0027108
0.00214711
0.00156014
0.000953081
0.000330007
-0.000305227
-0.00094899
-0.00159754
-0.00224705
-0.00289413
-0.00353538
-0.00416693
-0.0047854
-0.0053878
-0.00597092
-0.00653177
-0.00706775
-0.00757631
-0.00805487
-0.00850086
-0.00891217
-0.00928668
-0.00962229
-0.00991724
-0.0101697
-0.0103784
-0.0105418
-0.0106588
-0.0107285
-0.01075
-0.0107227
-0.0106458
-0.0105189
-0.0103415
-0.0101132
-0.00983401
-0.00950366
-0.00912222
-0.00868997
-0.00820719
-0.00767418
-0.00709138
-0.00645929
-0.00577849
-0.00504952
-0.00427309
-0.00345018
-0.00258179
-0.00166879
-0.000712153
0.000287031
0.00132751
0.00240797
0.00352723
0.0046841
0.00587712
0.00710471
0.00836537
0.00965765
0.01098
0.0123306
0.013708
0.0151105
0.0165365
0.0179841
0.0194515
0.0209366
0.0224378
0.0239534
0.0254814
0.0270197
0.0285664
0.0301192
0.0316763
0.0332356
0.0347949
0.0363521
0.0379054
0.0394526
0.0409917
0.0425205
0.0440369
0.045539
0.047025
0.048493
0.0499409
0.0513666
0.0527683
0.0541441
0.0554923
0.0568109
0.0580981
0.0593523
0.0605719
0.0617553
0.0629009
0.064007
0.0650719
0.0660945
0.0670736
0.0680081
0.0688964
0.0697373
0.0705298
0.0712729
0.0719659
0.0726081
0.0731985
0.0737365
0.0742213
0.0746527
0.0750304
0.0753542
0.0756239
0.0758398
0.0760023
0.0761118
0.0761692
0.0761749
0.0761299
0.076035
0.0758914
0.0757006
0.0754642
0.0751835
0.0748604
0.0744966
0.0740944
0.0736561
0.0731839
0.0726804
0.072148
0.0715895
0.0710077
0.0704062
0.0697882
0.0691573
0.0685168
0.0678703
0.0672214
0.0665739
0.0659316
0.0652982
0.0646775
0.0640733
0.0634894
0.0629294
0.0623968
0.0618949
0.061427
0.0609971
0.0606094
0.0602465
0.0598893
0.0064869
0.00598704
0.00550924
0.00502497
0.00450714
0.00396093
0.00339092
0.00280007
0.00219054
0.00156586
0.000929365
0.000284217
-0.000366103
-0.00101811
-0.00166855
-0.00231419
-0.0029519
-0.00357812
-0.00419001
-0.00478458
-0.00535891
-0.0059102
-0.00643621
-0.00693451
-0.00740265
-0.00783831
-0.00823953
-0.00860407
-0.00893029
-0.00921622
-0.00946033
-0.00966126
-0.00981766
-0.00992851
-0.00999286
-0.01001
-0.00997932
-0.00990013
-0.00977191
-0.00959432
-0.00936704
-0.00908982
-0.00876255
-0.0083854
-0.0079586
-0.00748232
-0.00695688
-0.00638279
-0.00576055
-0.00509059
-0.00437347
-0.00360998
-0.0028011
-0.00194772
-0.00105063
-0.000110794
0.000870528
0.00189213
0.00295293
0.00405181
0.00518742
0.00635834
0.00756314
0.00880038
0.0100686
0.0113662
0.0126916
0.0140432
0.0154194
0.0168188
0.0182393
0.019679
0.0211362
0.0226093
0.0240965
0.0255958
0.0271053
0.028623
0.0301469
0.031675
0.0332052
0.0347354
0.0362637
0.0377882
0.0393069
0.0408175
0.0423181
0.0438066
0.0452813
0.0467403
0.0481816
0.0496032
0.0510031
0.0523796
0.0537308
0.0550549
0.0563501
0.0576145
0.0588468
0.0600453
0.0612083
0.0623343
0.0634215
0.0644684
0.0654741
0.0664372
0.0673565
0.0682306
0.0690583
0.0698385
0.0705705
0.0712534
0.0718864
0.0724687
0.0729995
0.0734784
0.073905
0.0742788
0.0745998
0.0748678
0.0750831
0.075246
0.0753571
0.0754169
0.0754261
0.0753853
0.0752956
0.075158
0.0749741
0.0747451
0.0744726
0.074158
0.0738032
0.0734104
0.0729816
0.0725191
0.0720251
0.0715019
0.0709521
0.0703787
0.0697846
0.0691733
0.0685477
0.0679112
0.0672668
0.0666179
0.0659682
0.0653211
0.06468
0.0640481
0.0634288
0.0628257
0.0622421
0.061681
0.0611452
0.0606371
0.060161
0.0597208
0.0592922
0.0588509
0.00752815
0.00694074
0.00639421
0.00585505
0.00528834
0.00469978
0.00409351
0.00347176
0.00283681
0.00219126
0.00153782
0.000879424
0.000219158
-0.00043986
-0.00109462
-0.00174221
-0.00237964
-0.00300387
-0.0036121
-0.0042017
-0.00477014
-0.00531477
-0.00583336
-0.0063239
-0.00678403
-0.00721163
-0.00760467
-0.00796125
-0.00827967
-0.00855818
-0.00879533
-0.00898979
-0.00914037
-0.00924606
-0.00930608
-0.00931972
-0.00928631
-0.00920528
-0.00907625
-0.00889886
-0.0086727
-0.00839753
-0.00807343
-0.00770049
-0.00727885
-0.00680874
-0.00629053
-0.0057247
-0.00511166
-0.00445182
-0.00374581
-0.00299453
-0.00219878
-0.00135933
-0.000477064
0.000446938
0.00141152
0.00241555
0.00345801
0.00453778
0.00565351
0.00680378
0.00798728
0.00920267
0.0104484
0.0117229
0.0130247
0.0143522
0.015704
0.0170784
0.0184734
0.0198874
0.0213186
0.0227654
0.024226
0.0256986
0.0271811
0.0286717
0.0301686
0.0316696
0.0331726
0.0346757
0.0361771
0.0376748
0.0391668
0.040651
0.0421253
0.043588
0.0450372
0.0464711
0.0478876
0.0492848
0.0506609
0.052014
0.0533425
0.0546444
0.0559179
0.0571614
0.0583735
0.0595525
0.0606967
0.0618045
0.0628742
0.0639046
0.0648946
0.0658429
0.0667482
0.0676091
0.0684245
0.0691934
0.0699149
0.0705883
0.0712128
0.0717874
0.0723116
0.0727848
0.0732067
0.0735769
0.0738951
0.0741612
0.0743757
0.0745388
0.0746511
0.0747129
0.0747248
0.0746875
0.074602
0.0744694
0.0742911
0.0740683
0.0738022
0.0734945
0.0731469
0.0727615
0.0723401
0.071885
0.071398
0.0708814
0.0703377
0.0697697
0.0691802
0.0685724
0.0679491
0.0673131
0.0666676
0.0660156
0.0653602
0.0647048
0.0640524
0.0634059
0.0627683
0.0621429
0.0615325
0.06094
0.0603675
0.0598169
0.0592924
0.058798
0.0583026
0.0577767
0.00859428
0.00791954
0.00730365
0.00670784
0.00609085
0.00545773
0.00481269
0.00415751
0.00349409
0.00282454
0.0021512
0.00147661
0.000803432
0.000134332
-0.00052782
-0.00118033
-0.00182048
-0.00244564
-0.003053
-0.00364044
-0.00420559
-0.00474604
-0.00525976
-0.00574484
-0.00619912
-0.00662067
-0.00700747
-0.00735794
-0.00767015
-0.00794275
-0.00817432
-0.00836352
-0.00850936
-0.00861093
-0.0086675
-0.00867835
-0.00864287
-0.00856063
-0.00843124
-0.0082543
-0.0080294
-0.00775645
-0.00743554
-0.00706668
-0.00664995
-0.00618575
-0.00567444
-0.00511636
-0.00451189
-0.00386156
-0.00316603
-0.0024261
-0.00164256
-0.000816111
5.23026e-05
0.000961515
0.00191044
0.00289814
0.00392356
0.00498548
0.0060826
0.00721368
0.00837744
0.00957248
0.0107972
0.0120502
0.01333
0.0146353
0.0159643
0.0173154
0.0186867
0.0200767
0.0214837
0.0229061
0.024342
0.0257895
0.027247
0.0287125
0.0301842
0.0316599
0.0331376
0.0346156
0.0360921
0.037565
0.0390322
0.0404917
0.0419417
0.0433805
0.0448062
0.0462169
0.0476105
0.0489852
0.0503393
0.051671
0.0529785
0.0542599
0.0555135
0.0567379
0.0579314
0.0590925
0.0602193
0.0613103
0.0623641
0.0633793
0.0643549
0.0652896
0.0661819
0.0670306
0.0678347
0.0685931
0.069305
0.0699695
0.0705859
0.0711533
0.0716713
0.0721393
0.0725568
0.0729234
0.0732388
0.0735031
0.0737167
0.0738797
0.0739927
0.074056
0.07407
0.0740355
0.0739534
0.0738248
0.0736509
0.0734329
0.0731719
0.0728695
0.0725275
0.0721476
0.0717316
0.0712816
0.0707993
0.0702869
0.0697468
0.0691817
0.0685942
0.0679869
0.0673628
0.0667245
0.0660748
0.0654165
0.0647526
0.0640857
0.0634189
0.0627546
0.0620958
0.0614451
0.0608053
0.0601788
0.0595672
0.0589721
0.0583977
0.0578479
0.0572851
0.0566747
0.00967716
0.0089155
0.00823009
0.00757676
0.00690811
0.00622877
0.0055432
0.00485249
0.00415801
0.0034618
0.00276591
0.00207238
0.00138337
0.000701556
2.93821e-05
-0.000630727
-0.00127641
-0.00190508
-0.00251422
-0.00310201
-0.00366636
-0.00420501
-0.00471613
-0.00519783
-0.00564829
-0.00606563
-0.00644806
-0.00679389
-0.00710151
-0.00736966
-0.00759692
-0.00778208
-0.00792424
-0.00802266
-0.00807659
-0.00808533
-0.00804844
-0.00796557
-0.00783622
-0.00765995
-0.00743657
-0.00716601
-0.00684822
-0.00648326
-0.00607133
-0.00561277
-0.00510794
-0.00455712
-0.00396068
-0.00331925
-0.00263355
-0.00190421
-0.00113193
-0.000317572
0.000537837
0.00143326
0.00236772
0.00334025
0.00434978
0.00539509
0.00647498
0.0075883
0.00873376
0.00990988
0.0111152
0.0123482
0.0136078
0.0148924
0.0162003
0.0175298
0.0188792
0.020247
0.0216316
0.0230313
0.0244442
0.0258687
0.027303
0.0287453
0.0301936
0.0316459
0.0331003
0.0345551
0.0360084
0.0374583
0.0389026
0.0403394
0.0417671
0.0431839
0.0445879
0.0459772
0.0473497
0.0487038
0.0500378
0.0513498
0.052638
0.0539007
0.0551362
0.056343
0.0575197
0.0586643
0.0597752
0.0608509
0.06189
0.0628914
0.0638539
0.064776
0.0656565
0.066494
0.0672877
0.0680364
0.0687394
0.0693957
0.0700046
0.0705655
0.0710777
0.0715408
0.0719541
0.0723173
0.07263
0.0728925
0.0731051
0.0732679
0.0733812
0.0734455
0.073461
0.0734286
0.0733491
0.0732236
0.073053
0.0728385
0.0725813
0.0722828
0.0719446
0.0715685
0.0711561
0.0707091
0.0702294
0.069719
0.0691802
0.0686156
0.0680274
0.0674183
0.0667907
0.0661473
0.0654906
0.0648232
0.0641478
0.0634668
0.0627826
0.0620979
0.0614151
0.0607367
0.0600651
0.0594024
0.0587498
0.0581086
0.057483
0.0568769
0.0562465
0.0555518
0.0107692
0.00992148
0.00916681
0.00845559
0.0077341
0.00700732
0.00627975
0.00555178
0.00482424
0.00409931
0.00337845
0.00266342
0.00195629
0.00125935
0.00057459
-9.56561e-05
-0.00074922
-0.00138376
-0.00199721
-0.0025877
-0.00315346
-0.0036925
-0.00420308
-0.00468346
-0.00513199
-0.00554684
-0.00592651
-0.00626924
-0.00657376
-0.00683872
-0.00706285
-0.00724514
-0.00738472
-0.00748088
-0.00753289
-0.00754028
-0.00750264
-0.00741957
-0.00729057
-0.0071153
-0.00689367
-0.00662558
-0.00631089
-0.00594973
-0.00554244
-0.00508929
-0.00459049
-0.00404639
-0.00345753
-0.0028245
-0.00214788
-0.0014283
-0.000666503
0.000136571
0.000979906
0.00186258
0.00278367
0.00374215
0.00473692