/*--------------------------------*- C++ -*----------------------------------*\
  =========                 |
  \\      /  F ield         | OpenFOAM: The Open Source CFD Toolbox
   \\    /   O peration     | Website:  https://openfoam.org
    \\  /    A nd           | Version:  7
     \\/     M anipulation  |
\*---------------------------------------------------------------------------*/
FoamFile
{
    version     2.0;
    format      ascii;
    class       surfaceScalarField;
    location    "0.1";
    object      phi;
}
// * * * * * * * * * * * * * * * * * * * * * * * * * * * * * * * * * * * * * //

dimensions      [0 3 -1 0 0 0 0];

internalField   nonuniform List<scalar> 
50880
(
5.62762e-12
-5.61279e-12
4.03363e-11
-3.47143e-11
9.54165e-11
-5.50822e-11
1.55264e-10
-5.98483e-11
2.10373e-10
-5.51113e-11
2.55603e-10
-4.52259e-11
2.87964e-10
-3.23588e-11
3.05684e-10
-1.77264e-11
3.07765e-10
-2.07644e-12
2.93617e-10
1.41448e-11
2.62952e-10
3.06666e-11
2.15743e-10
4.72103e-11
1.52109e-10
6.36367e-11
7.22974e-11
7.98116e-11
-2.33615e-11
9.56627e-11
-1.34489e-10
1.11122e-10
-2.60642e-10
1.26155e-10
-4.01334e-10
1.40695e-10
-5.56001e-10
1.54669e-10
-7.24065e-10
1.68062e-10
-9.04947e-10
1.80884e-10
-1.09806e-09
1.9311e-10
-1.30278e-09
2.0472e-10
-1.51843e-09
2.15668e-10
-1.74439e-09
2.25957e-10
-1.97996e-09
2.35579e-10
-2.22451e-09
2.44547e-10
-2.47735e-09
2.5284e-10
-2.7378e-09
2.60446e-10
-3.00521e-09
2.67409e-10
-3.27889e-09
2.73685e-10
-3.55821e-09
2.79314e-10
-3.8425e-09
2.8429e-10
-4.13114e-09
2.88628e-10
-4.42348e-09
2.92342e-10
-4.71893e-09
2.95448e-10
-5.01688e-09
2.97945e-10
-5.31672e-09
2.99843e-10
-5.6179e-09
3.01173e-10
-5.91983e-09
3.01933e-10
-6.22196e-09
3.02119e-10
-6.52372e-09
3.01765e-10
-6.8246e-09
3.0088e-10
-7.12406e-09
2.99461e-10
-7.42158e-09
2.97524e-10
-7.71666e-09
2.95088e-10
-8.00882e-09
2.92162e-10
-8.29759e-09
2.88761e-10
-8.58249e-09
2.84899e-10
-8.86308e-09
2.80593e-10
-9.13894e-09
2.75856e-10
-9.40964e-09
2.70693e-10
-9.67475e-09
2.65115e-10
-9.9339e-09
2.59149e-10
-1.01867e-08
2.52808e-10
-1.04328e-08
2.461e-10
-1.06718e-08
2.39039e-10
-1.09035e-08
2.3164e-10
-1.11274e-08
2.23914e-10
-1.13433e-08
2.1587e-10
-1.15508e-08
2.0752e-10
-1.17497e-08
1.98879e-10
-1.19396e-08
1.89954e-10
-1.21204e-08
1.80751e-10
-1.22917e-08
1.71287e-10
-1.24532e-08
1.61577e-10
-1.26049e-08
1.51638e-10
-1.27464e-08
1.41478e-10
-1.28775e-08
1.31103e-10
-1.2998e-08
1.20532e-10
-1.31078e-08
1.09785e-10
-1.32067e-08
9.88808e-11
-1.32945e-08
8.78296e-11
-1.33711e-08
7.66425e-11
-1.34365e-08
6.53341e-11
-1.34904e-08
5.39211e-11
-1.35328e-08
4.24224e-11
-1.35637e-08
3.08573e-11
-1.35829e-08
1.92438e-11
-1.35905e-08
7.5991e-12
-1.35864e-08
-4.06564e-12
-1.35707e-08
-1.57441e-11
-1.35433e-08
-2.74198e-11
-1.35042e-08
-3.90648e-11
-1.34536e-08
-5.06558e-11
-1.33914e-08
-6.21827e-11
-1.33177e-08
-7.36419e-11
-1.32327e-08
-8.50239e-11
-1.31364e-08
-9.63082e-11
-1.30289e-08
-1.07472e-10
-1.29104e-08
-1.18496e-10
-1.27811e-08
-1.29366e-10
-1.2641e-08
-1.40071e-10
-1.24904e-08
-1.506e-10
-1.23295e-08
-1.60937e-10
-1.21584e-08
-1.71063e-10
-1.19774e-08
-1.80954e-10
-1.17869e-08
-1.90588e-10
-1.15869e-08
-1.99947e-10
-1.13779e-08
-2.09017e-10
-1.11601e-08
-2.1779e-10
-1.09338e-08
-2.26263e-10
-1.06994e-08
-2.34418e-10
-1.04572e-08
-2.4223e-10
-1.02075e-08
-2.49673e-10
-9.95078e-09
-2.56733e-10
-9.68739e-09
-2.63399e-10
-9.41773e-09
-2.69661e-10
-9.14222e-09
-2.75505e-10
-8.8613e-09
-2.80918e-10
-8.57542e-09
-2.8588e-10
-8.28505e-09
-2.90371e-10
-7.99068e-09
-2.94371e-10
-7.69281e-09
-2.97864e-10
-7.39198e-09
-3.00836e-10
-7.0887e-09
-3.03274e-10
-6.78353e-09
-3.05166e-10
-6.47703e-09
-3.06501e-10
-6.16977e-09
-3.0726e-10
-5.86235e-09
-3.07424e-10
-5.55537e-09
-3.06974e-10
-5.24947e-09
-3.05899e-10
-4.94528e-09
-3.04192e-10
-4.64343e-09
-3.01849e-10
-4.34457e-09
-2.98866e-10
-4.04932e-09
-2.9524e-10
-3.75836e-09
-2.90966e-10
-3.47232e-09
-2.86035e-10
-3.19188e-09
-2.80438e-10
-2.91772e-09
-2.74168e-10
-2.65049e-09
-2.67221e-10
-2.3909e-09
-2.59598e-10
-2.1396e-09
-2.51302e-10
-1.89726e-09
-2.4234e-10
-1.66454e-09
-2.32722e-10
-1.44208e-09
-2.22456e-10
-1.23053e-09
-2.11548e-10
-1.03053e-09
-2.00006e-10
-8.42691e-10
-1.87838e-10
-6.67627e-10
-1.75065e-10
-5.05915e-10
-1.61712e-10
-3.58105e-10
-1.47809e-10
-2.2471e-10
-1.33395e-10
-1.06194e-10
-1.18515e-10
-2.97224e-12
-1.03222e-10
8.46103e-11
-8.75825e-11
1.56287e-10
-7.16765e-11
2.11891e-10
-5.56048e-11
2.5139e-10
-3.95e-11
2.74924e-10
-2.35349e-11
2.82862e-10
-7.93887e-12
2.75879e-10
6.98291e-12
2.55057e-10
2.08214e-11
2.22034e-10
3.30215e-11
1.79222e-10
4.28097e-11
1.30118e-10
4.9103e-11
7.96951e-11
5.04234e-11
3.49618e-11
4.47341e-11
5.51843e-12
2.94436e-11
5.51848e-12
2.32791e-11
-2.88915e-11
9.22473e-11
-1.03676e-10
1.93945e-10
-1.56778e-10
3.05609e-10
-1.71511e-10
4.08897e-10
-1.58405e-10
4.90942e-10
-1.27271e-10
5.42939e-10
-8.43544e-11
5.58899e-10
-3.36834e-11
5.34819e-10
2.19937e-11
4.68142e-10
8.08342e-11
3.57375e-10
1.41426e-10
2.01715e-10
2.02871e-10
1.02966e-12
2.64326e-10
-2.44448e-10
3.2529e-10
-5.34101e-10
3.85318e-10
-8.67054e-10
4.44077e-10
-1.24217e-09
5.01273e-10
-1.6582e-09
5.56719e-10
-2.11372e-09
6.10196e-10
-2.60724e-09
6.61577e-10
-3.1371e-09
7.10746e-10
-3.70162e-09
7.57632e-10
-4.29905e-09
8.02145e-10
-4.92762e-09
8.44229e-10
-5.58549e-09
8.83822e-10
-6.27083e-09
9.20909e-10
-6.98172e-09
9.55446e-10
-7.71632e-09
9.87434e-10
-8.47274e-09
1.01688e-09
-9.2491e-09
1.04375e-09
-1.00435e-08
1.0681e-09
-1.08541e-08
1.08994e-09
-1.16791e-08
1.10929e-09
-1.25167e-08
1.12618e-09
-1.3365e-08
1.14066e-09
-1.42223e-08
1.15276e-09
-1.50869e-08
1.16251e-09
-1.5957e-08
1.16996e-09
-1.68309e-08
1.17516e-09
-1.77071e-08
1.17812e-09
-1.85839e-08
1.17892e-09
-1.94597e-08
1.17758e-09
-2.0333e-08
1.17414e-09
-2.12022e-08
1.16865e-09
-2.20658e-08
1.16116e-09
-2.29225e-08
1.15171e-09
-2.37707e-08
1.14037e-09
-2.46091e-08
1.12716e-09
-2.54363e-08
1.11216e-09
-2.62511e-08
1.0954e-09
-2.70522e-08
1.07694e-09
-2.78383e-08
1.05681e-09
-2.86083e-08
1.03509e-09
-2.9361e-08
1.01182e-09
-3.00952e-08
9.87067e-10
-3.081e-08
9.60867e-10
-3.15042e-08
9.33275e-10
-3.21769e-08
9.04343e-10
-3.28271e-08
8.74116e-10
-3.34539e-08
8.42643e-10
-3.40563e-08
8.09971e-10
-3.46336e-08
7.76152e-10
-3.51849e-08
7.41227e-10
-3.57094e-08
7.05237e-10
-3.62063e-08
6.68236e-10
-3.6675e-08
6.30282e-10
-3.71148e-08
5.91429e-10
-3.75251e-08
5.51722e-10
-3.79052e-08
5.1121e-10
-3.82546e-08
4.69953e-10
-3.85728e-08
4.28016e-10
-3.88594e-08
3.85457e-10
-3.91139e-08
3.42325e-10
-3.93359e-08
2.98676e-10
-3.95252e-08
2.54571e-10
-3.96813e-08
2.10069e-10
-3.98041e-08
1.65231e-10
-3.98934e-08
1.20123e-10
-3.99489e-08
7.48132e-11
-3.99707e-08
2.93593e-11
-3.99586e-08
-1.61864e-11
-3.99126e-08
-6.17697e-11
-3.98327e-08
-1.07326e-10
-3.97189e-08
-1.5278e-10
-3.95715e-08
-1.98064e-10
-3.93906e-08
-2.43126e-10
-3.91763e-08
-2.87919e-10
-3.89289e-08
-3.32388e-10
-3.86488e-08
-3.76466e-10
-3.83362e-08
-4.20081e-10
-3.79915e-08
-4.63166e-10
-3.76152e-08
-5.0566e-10
-3.72078e-08
-5.47506e-10
-3.67697e-08
-5.88644e-10
-3.63017e-08
-6.29011e-10
-3.58042e-08
-6.6854e-10
-3.5278e-08
-7.07159e-10
-3.47238e-08
-7.44789e-10
-3.41423e-08
-7.81364e-10
-3.35345e-08
-8.16826e-10
-3.29012e-08
-8.51126e-10
-3.22433e-08
-8.84209e-10
-3.15617e-08
-9.16013e-10
-3.08574e-08
-9.46463e-10
-3.01316e-08
-9.75489e-10
-2.93853e-08
-1.00302e-09
-2.86197e-08
-1.02901e-09
-2.7836e-08
-1.05341e-09
-2.70353e-08
-1.07614e-09
-2.62191e-08
-1.09716e-09
-2.53886e-08
-1.1164e-09
-2.45451e-08
-1.13379e-09
-2.36902e-08
-1.14927e-09
-2.28253e-08
-1.16277e-09
-2.19519e-08
-1.17425e-09
-2.10715e-08
-1.18365e-09
-2.01858e-08
-1.19091e-09
-1.92963e-08
-1.196e-09
-1.84047e-08
-1.19884e-09
-1.75127e-08
-1.19939e-09
-1.66221e-08
-1.1976e-09
-1.57346e-08
-1.19341e-09
-1.4852e-08
-1.18679e-09
-1.39761e-08
-1.17773e-09
-1.31088e-08
-1.1662e-09
-1.22519e-08
-1.15217e-09
-1.14072e-08
-1.13563e-09
-1.05767e-08
-1.11655e-09
-9.76221e-09
-1.09491e-09
-8.96567e-09
-1.0707e-09
-8.18899e-09
-1.04391e-09
-7.43405e-09
-1.01453e-09
-6.70276e-09
-9.82596e-10
-5.99698e-09
-9.48117e-10
-5.31857e-09
-9.11127e-10
-4.66937e-09
-8.7166e-10
-4.05117e-09
-8.29753e-10
-3.46572e-09
-7.85455e-10
-2.91473e-09
-7.38827e-10
-2.39984e-09
-6.89953e-10
-1.92262e-09
-6.38938e-10
-1.48451e-09
-5.85913e-10
-1.08687e-09
-5.31037e-10
-7.30881e-10
-4.74504e-10
-4.17558e-10
-4.16544e-10
-1.47704e-10
-3.57437e-10
7.81471e-11
-2.97529e-10
2.59786e-10
-2.37246e-10
3.97416e-10
-1.77132e-10
4.91756e-10
-1.17878e-10
5.4418e-10
-6.0365e-11
5.56894e-10
-5.73249e-12
5.3317e-10
4.45451e-11
4.77641e-10
8.855e-11
3.96676e-10
1.23775e-10
2.98816e-10
1.46962e-10
1.95222e-10
1.54017e-10
9.99213e-11
1.40035e-10
2.92717e-11
1.00093e-10
3.47899e-11
3.21899e-11
-6.10834e-11
1.14285e-10
-1.85777e-10
2.28864e-10
-2.71361e-10
3.51463e-10
-2.94108e-10
4.60333e-10
-2.67271e-10
5.38413e-10
-2.05359e-10
5.72797e-10
-1.18738e-10
5.54074e-10
-1.49571e-11
4.7553e-10
1.00539e-10
3.32546e-10
2.23812e-10
1.22115e-10
3.51866e-10
-1.57485e-10
4.82462e-10
-5.0701e-10
6.13843e-10
-9.26437e-10
7.44719e-10
-1.4151e-09
8.73973e-10
-1.97185e-09
1.00083e-09
-2.59519e-09
1.12462e-09
-3.28327e-09
1.24479e-09
-4.03394e-09
1.36087e-09
-4.84491e-09
1.47255e-09
-5.7137e-09
1.57953e-09
-6.63769e-09
1.68162e-09
-7.61417e-09
1.77862e-09
-8.64031e-09
1.87037e-09
-9.71325e-09
1.95677e-09
-1.08301e-08
2.03774e-09
-1.19879e-08
2.11322e-09
-1.31836e-08
2.18318e-09
-1.44144e-08
2.24762e-09
-1.56771e-08
2.3065e-09
-1.69689e-08
2.35991e-09
-1.82868e-08
2.40783e-09
-1.96279e-08
2.45033e-09
-2.09892e-08
2.48747e-09
-2.23678e-08
2.51933e-09
-2.3761e-08
2.54596e-09
-2.5166e-08
2.56744e-09
-2.65799e-08
2.58386e-09
-2.8e-08
2.59532e-09
-2.94238e-08
2.60187e-09
-3.08485e-08
2.60363e-09
-3.22716e-08
2.60069e-09
-3.36906e-08
2.59313e-09
-3.5103e-08
2.58106e-09
-3.65064e-08
2.56457e-09
-3.78985e-08
2.54378e-09
-3.92769e-08
2.51877e-09
-4.06394e-08
2.48968e-09
-4.19838e-08
2.4566e-09
-4.33081e-08
2.41964e-09
-4.461e-08
2.37891e-09
-4.58877e-08
2.33451e-09
-4.71392e-08
2.28657e-09
-4.83626e-08
2.23519e-09
-4.9556e-08
2.18051e-09
-5.07178e-08
2.12261e-09
-5.18461e-08
2.06162e-09
-5.29394e-08
1.99765e-09
-5.39961e-08
1.9308e-09
-5.50147e-08
1.86118e-09
-5.59936e-08
1.78891e-09
-5.69315e-08
1.7141e-09
-5.78272e-08
1.63684e-09
-5.86792e-08
1.55725e-09
-5.94864e-08
1.47545e-09
-6.02477e-08
1.39155e-09
-6.09619e-08
1.30566e-09
-6.16281e-08
1.2179e-09
-6.22452e-08
1.12839e-09
-6.28125e-08
1.03726e-09
-6.33292e-08
9.44621e-10
-6.37943e-08
8.50614e-10
-6.42073e-08
7.55354e-10
-6.45676e-08
6.58966e-10
-6.48746e-08
5.61577e-10
-6.51279e-08
4.63318e-10
-6.5327e-08
3.64323e-10
-6.54716e-08
2.64727e-10
-6.55614e-08
1.64668e-10
-6.55963e-08
6.42759e-11
-6.55762e-08
-3.63265e-11
-6.5501e-08
-1.3701e-10
-6.53707e-08
-2.37632e-10
-6.51854e-08
-3.38047e-10
-6.49453e-08
-4.38116e-10
-6.46508e-08
-5.37712e-10
-6.4302e-08
-6.3671e-10
-6.38994e-08
-7.34979e-10
-6.34435e-08
-8.32374e-10
-6.29348e-08
-9.2875e-10
-6.2374e-08
-1.02396e-09
-6.17618e-08
-1.11788e-09
-6.10989e-08
-1.21035e-09
-6.03863e-08
-1.30125e-09
-5.96249e-08
-1.39044e-09
-5.88157e-08
-1.47775e-09
-5.79598e-08
-1.56305e-09
-5.70584e-08
-1.64618e-09
-5.61128e-08
-1.727e-09
-5.51242e-08
-1.80536e-09
-5.40942e-08
-1.88114e-09
-5.30242e-08
-1.95421e-09
-5.19158e-08
-2.02442e-09
-5.07706e-08
-2.09163e-09
-4.95905e-08
-2.15568e-09
-4.8377e-08
-2.21644e-09
-4.71323e-08
-2.27378e-09
-4.58581e-08
-2.32756e-09
-4.45566e-08
-2.37767e-09
-4.32298e-08
-2.42395e-09
-4.18799e-08
-2.46628e-09
-4.05092e-08
-2.50453e-09
-3.91199e-08
-2.53854e-09
-3.77145e-08
-2.56821e-09
-3.62953e-08
-2.59341e-09
-3.48649e-08
-2.61402e-09
-3.34259e-08
-2.62994e-09
-3.19809e-08
-2.64104e-09
-3.05325e-08
-2.64722e-09
-2.90835e-08
-2.64838e-09
-2.76367e-08
-2.6444e-09
-2.61949e-08
-2.6352e-09
-2.4761e-08
-2.62071e-09
-2.33378e-08
-2.60086e-09
-2.19284e-08
-2.5756e-09
-2.05357e-08
-2.54487e-09
-1.91627e-08
-2.50864e-09
-1.78124e-08
-2.46685e-09
-1.64879e-08
-2.41948e-09
-1.5192e-08
-2.36651e-09
-1.3928e-08
-2.30793e-09
-1.26988e-08
-2.24375e-09
-1.15074e-08
-2.174e-09
-1.03568e-08
-2.09874e-09
-9.24988e-09
-2.01802e-09
-8.1896e-09
-1.93194e-09
-7.17877e-09
-1.84059e-09
-6.22012e-09
-1.7441e-09
-5.3163e-09
-1.64264e-09
-4.46986e-09
-1.5364e-09
-3.68316e-09
-1.42564e-09
-2.95842e-09
-1.31065e-09
-2.29765e-09
-1.19181e-09
-1.70259e-09
-1.06956e-09
-1.1747e-09
-9.44438e-10
-7.15046e-10
-8.17088e-10
-3.24273e-10
-6.88303e-10
-2.46599e-12
-5.59054e-10
2.50946e-10
-4.30545e-10
4.37347e-10
-3.04279e-10
5.59117e-10
-1.82136e-10
6.19862e-10
-6.64801e-11
6.24699e-10
3.97067e-11
5.80584e-10
1.32664e-10
4.96697e-10
2.07662e-10
3.84828e-10
2.58831e-10
2.59731e-10
2.79114e-10
1.39279e-10
2.60487e-10
4.4312e-11
1.9506e-10
7.91015e-11
3.71448e-11
-9.82276e-11
1.21806e-10
-2.70435e-10
2.31501e-10
-3.81051e-10
3.41011e-10
-4.03631e-10
4.27571e-10
-3.53824e-10
4.72204e-10
-2.49987e-10
4.59922e-10
-1.06453e-10
3.79122e-10
6.58375e-11
2.2111e-10
2.58545e-10
-2.02973e-11
4.65214e-10
-3.49362e-10
6.80932e-10
-7.6872e-10
9.01818e-10
-1.27972e-09
1.12486e-09
-1.88266e-09
1.34766e-09
-2.57701e-09
1.56834e-09
-3.36153e-09
1.78534e-09
-4.23437e-09
1.99746e-09
-5.19327e-09
2.20369e-09
-6.23564e-09
2.40324e-09
-7.3585e-09
2.59541e-09
-8.55868e-09
2.77971e-09
-9.83276e-09
2.9557e-09
-1.11772e-08
3.12305e-09
-1.25883e-08
3.28146e-09
-1.40622e-08
3.43074e-09
-1.55952e-08
3.57074e-09
-1.71834e-08
3.70133e-09
-1.88226e-08
3.82245e-09
-2.05091e-08
3.93406e-09
-2.22387e-08
4.03617e-09
-2.40076e-08
4.12878e-09
-2.58118e-08
4.21196e-09
-2.76472e-08
4.28578e-09
-2.951e-08
4.35032e-09
-3.13964e-08
4.40567e-09
-3.33024e-08
4.45197e-09
-3.52243e-08
4.48933e-09
-3.71583e-08
4.51789e-09
-3.91008e-08
4.53778e-09
-4.10481e-08
4.54916e-09
-4.29966e-08
4.55218e-09
-4.49429e-08
4.54699e-09
-4.68836e-08
4.53377e-09
-4.88152e-08
4.51268e-09
-5.07345e-08
4.48388e-09
-5.26383e-08
4.44756e-09
-5.45234e-08
4.4039e-09
-5.63868e-08
4.35307e-09
-5.82255e-08
4.29528e-09
-6.00365e-08
4.2307e-09
-6.18171e-08
4.15952e-09
-6.35646e-08
4.08193e-09
-6.52761e-08
3.99814e-09
-6.69493e-08
3.90833e-09
-6.85815e-08
3.81269e-09
-7.01703e-08
3.71143e-09
-7.17134e-08
3.60474e-09
-7.32086e-08
3.49282e-09
-7.46536e-08
3.37585e-09
-7.60465e-08
3.25403e-09
-7.73851e-08
3.12756e-09
-7.86676e-08
2.99663e-09
-7.98922e-08
2.86143e-09
-8.10571e-08
2.72217e-09
-8.21607e-08
2.57904e-09
-8.32014e-08
2.43225e-09
-8.41778e-08
2.282e-09
-8.50884e-08
2.1285e-09
-8.59319e-08
1.97195e-09
-8.67072e-08
1.81257e-09
-8.74132e-08
1.65058e-09
-8.80488e-08
1.48619e-09
-8.86131e-08
1.31963e-09
-8.91052e-08
1.1511e-09
-8.95245e-08
9.80837e-10
-8.98702e-08
8.09055e-10
-9.01419e-08
6.35986e-10
-9.0339e-08
4.61865e-10
-9.04612e-08
2.86926e-10
-9.05084e-08
1.11394e-10
-9.04802e-08
-6.45061e-11
-9.03766e-08
-2.40544e-10
-9.01978e-08
-4.16478e-10
-8.99438e-08
-5.92063e-10
-8.96148e-08
-7.67062e-10
-8.92113e-08
-9.41244e-10
-8.87336e-08
-1.11438e-09
-8.81824e-08
-1.28622e-09
-8.75583e-08
-1.45652e-09
-8.6862e-08
-1.62505e-09
-8.60944e-08
-1.79155e-09
-8.52565e-08
-1.95576e-09
-8.43494e-08
-2.11746e-09
-8.33743e-08
-2.27638e-09
-8.23324e-08
-2.43229e-09
-8.12252e-08
-2.58492e-09
-8.00543e-08
-2.73403e-09
-7.88211e-08
-2.87934e-09
-7.75275e-08
-3.02061e-09
-7.61752e-08
-3.1576e-09
-7.47663e-08
-3.29005e-09
-7.33028e-08
-3.41774e-09
-7.17868e-08
-3.54042e-09
-7.02206e-08
-3.65782e-09
-6.86066e-08
-3.76971e-09
-6.69472e-08
-3.87584e-09
-6.5245e-08
-3.97597e-09
-6.35027e-08
-4.06987e-09
-6.1723e-08
-4.15731e-09
-5.99089e-08
-4.23806e-09
-5.80633e-08
-4.31189e-09
-5.61893e-08
-4.37857e-09
-5.42899e-08
-4.43787e-09
-5.23686e-08
-4.48958e-09
-5.04285e-08
-4.53349e-09
-4.84731e-08
-4.5694e-09
-4.65059e-08
-4.59712e-09
-4.45305e-08
-4.61646e-09
-4.25505e-08
-4.62724e-09
-4.05696e-08
-4.62928e-09
-3.85915e-08
-4.62241e-09
-3.66202e-08
-4.6065e-09
-3.46595e-08
-4.58142e-09
-3.27134e-08
-4.54704e-09
-3.07857e-08
-4.50327e-09
-2.88805e-08
-4.45002e-09
-2.70019e-08
-4.38723e-09
-2.5154e-08
-4.31483e-09
-2.33407e-08
-4.23277e-09
-2.15662e-08
-4.14104e-09
-1.98344e-08
-4.03964e-09
-1.81496e-08
-3.92859e-09
-1.65156e-08
-3.80797e-09
-1.49365e-08
-3.67785e-09
-1.34162e-08
-3.53837e-09
-1.19584e-08
-3.38969e-09
-1.0567e-08
-3.23201e-09
-9.24554e-09
-3.06557e-09
-7.9975e-09
-2.89068e-09
-6.82618e-09
-2.70773e-09
-5.73465e-09
-2.51716e-09
-4.72576e-09
-2.31954e-09
-3.80203e-09
-2.11553e-09
-2.96566e-09
-1.90594e-09
-2.21839e-09
-1.69171e-09
-1.56147e-09
-1.47401e-09
-9.9554e-10
-1.25424e-09
-5.2051e-10
-1.03409e-09
-1.35423e-10
-8.15633e-10
1.61722e-10
-6.01424e-10
3.74171e-10
-3.94584e-10
5.06661e-10
-1.9897e-10
5.65705e-10
-1.93375e-11
5.5991e-10
1.38457e-10
5.00323e-10
2.67249e-10
4.00772e-10
3.58382e-10
2.78223e-10
4.01662e-10
1.53108e-10
3.856e-10
4.9906e-11
2.9826e-10
1.29007e-10
3.75219e-11
-1.3575e-10
1.14873e-10
-3.47796e-10
2.05622e-10
-4.71794e-10
2.84156e-10
-4.82158e-10
3.27563e-10
-3.9724e-10
3.16372e-10
-2.38803e-10
2.34564e-10
-2.46369e-11
6.93946e-11
2.3101e-10
-1.88926e-10
5.1687e-10
-5.47723e-10
8.24023e-10
-1.01216e-09
1.14537e-09
-1.58559e-09
1.47524e-09
-2.2699e-09
1.80916e-09
-3.06568e-09
2.14343e-09
-3.97251e-09
2.47517e-09
-4.98912e-09
2.80196e-09
-6.11355e-09
3.1219e-09
-7.34322e-09
3.43337e-09
-8.67508e-09
3.7351e-09
-1.01057e-08
4.02602e-09
-1.16312e-08
4.30527e-09
-1.32477e-08
4.57216e-09
-1.49508e-08
4.82615e-09
-1.67361e-08
5.06675e-09
-1.8599e-08
5.29364e-09
-2.05348e-08
5.50653e-09
-2.25387e-08
5.70525e-09
-2.46059e-08
5.88967e-09
-2.67315e-08
6.05968e-09
-2.89107e-08
6.21531e-09
-3.11384e-08
6.35652e-09
-3.34099e-08
6.48343e-09
-3.57202e-08
6.59606e-09
-3.80644e-08
6.69457e-09
-4.04378e-08
6.77909e-09
-4.28356e-08
6.84978e-09
-4.52531e-08
6.9068e-09
-4.76856e-08
6.95037e-09
-5.01285e-08
6.98068e-09
-5.25773e-08
6.99795e-09
-5.50275e-08
7.0024e-09
-5.74748e-08
6.99428e-09
-5.99148e-08
6.97384e-09
-6.23435e-08
6.94131e-09
-6.47566e-08
6.89697e-09
-6.71501e-08
6.84109e-09
-6.95201e-08
6.77392e-09
-7.18628e-08
6.69575e-09
-7.41744e-08
6.60686e-09
-7.64512e-08
6.50754e-09
-7.86897e-08
6.39806e-09
-8.08866e-08
6.27873e-09
-8.30383e-08
6.14984e-09
-8.51416e-08
6.01168e-09
-8.71935e-08
5.86456e-09
-8.91908e-08
5.70876e-09
-9.11307e-08
5.54459e-09
-9.30102e-08
5.37235e-09
-9.48267e-08
5.19234e-09
-9.65775e-08
5.00485e-09
-9.82602e-08
4.81021e-09
-9.98722e-08
4.6087e-09
-1.01411e-07
4.40062e-09
-1.02876e-07
4.1863e-09
-1.04263e-07
3.96603e-09
-1.0557e-07
3.74014e-09
-1.06797e-07
3.50894e-09
-1.07942e-07
3.27274e-09
-1.09002e-07
3.03188e-09
-1.09976e-07
2.78668e-09
-1.10863e-07
2.53747e-09
-1.11661e-07
2.28458e-09
-1.1237e-07
2.02835e-09
-1.12988e-07
1.76911e-09
-1.13514e-07
1.50721e-09
-1.13948e-07
1.24298e-09
-1.14289e-07
9.76776e-10
-1.14536e-07
7.08954e-10
-1.14689e-07
4.39869e-10
-1.14747e-07
1.69867e-10
-1.14711e-07
-1.00699e-10
-1.1458e-07
-3.71468e-10
-1.14355e-07
-6.42075e-10
-1.14034e-07
-9.12155e-10
-1.1362e-07
-1.18134e-09
-1.13112e-07
-1.44927e-09
-1.12511e-07
-1.71558e-09
-1.11817e-07
-1.97989e-09
-1.11032e-07
-2.24183e-09
-1.10156e-07
-2.50102e-09
-1.0919e-07
-2.75709e-09
-1.08137e-07
-3.00964e-09
-1.06996e-07
-3.2583e-09
-1.05769e-07
-3.50269e-09
-1.04459e-07
-3.74241e-09
-1.03067e-07
-3.9771e-09
-1.01595e-07
-4.20634e-09
-1.00044e-07
-4.42976e-09
-9.8418e-08
-4.64696e-09
-9.67181e-08
-4.85756e-09
-9.49469e-08
-5.06119e-09
-9.31072e-08
-5.25746e-09
-9.12016e-08
-5.446e-09
-8.9233e-08
-5.62643e-09
-8.72044e-08
-5.79836e-09
-8.51188e-08
-5.96143e-09
-8.29795e-08
-6.11528e-09
-8.07898e-08
-6.25953e-09
-7.85533e-08
-6.39384e-09
-7.62735e-08
-6.51786e-09
-7.39541e-08
-6.63122e-09
-7.15991e-08
-6.7336e-09
-6.92123e-08
-6.82466e-09
-6.67978e-08
-6.90406e-09
-6.43598e-08
-6.97149e-09
-6.19026e-08
-7.02666e-09
-5.94304e-08
-7.06927e-09
-5.69479e-08
-7.09904e-09
-5.44594e-08
-7.11571e-09
-5.19697e-08
-7.11901e-09
-4.94834e-08
-7.10871e-09
-4.70053e-08
-7.08459e-09
-4.45402e-08
-7.04646e-09
-4.20931e-08
-6.99415e-09
-3.96689e-08
-6.92751e-09
-3.72725e-08
-6.84642e-09
-3.4909e-08
-6.75076e-09
-3.25833e-08
-6.64047e-09
-3.03006e-08
-6.51548e-09
-2.80658e-08
-6.3758e-09
-2.58841e-08
-6.22143e-09
-2.37602e-08
-6.05243e-09
-2.16993e-08
-5.86892e-09
-1.97061e-08
-5.67104e-09
-1.77854e-08
-5.45902e-09
-1.5942e-08
-5.23311e-09
-1.41804e-08
-4.99365e-09
-1.25049e-08
-4.74105e-09
-1.09197e-08
-4.47582e-09
-9.4289e-09
-4.19857e-09
-8.03603e-09
-3.91003e-09
-6.7445e-09
-3.61108e-09
-5.55727e-09
-3.30277e-09
-4.47686e-09
-2.98635e-09
-3.50525e-09
-2.66332e-09
-2.64379e-09
-2.33547e-09
-1.89309e-09
-2.00494e-09
-1.25288e-09
-1.6743e-09
-7.21862e-10
-1.34665e-09
-2.97533e-10
-1.02575e-09
2.40302e-11
-7.16146e-10
2.48403e-10
-4.23343e-10
3.83083e-10
-1.54017e-10
4.37774e-10
8.37667e-11
4.24699e-10
2.80324e-10
3.58938e-10
4.24143e-10
2.58822e-10
5.01777e-10
1.46454e-10
4.97967e-10
4.8675e-11
3.96035e-10
1.77682e-10
3.32208e-11
-1.68967e-10
9.40807e-11
-4.08657e-10
1.53793e-10
-5.31514e-10
1.86886e-10
-5.15245e-10
1.70702e-10
-3.81064e-10
8.59299e-11
-1.54029e-10
-8.36418e-11
1.44929e-10
-3.51177e-10
4.98546e-10
-7.27113e-10
8.92808e-10
-1.21933e-09
1.31623e-09
-1.83356e-09
1.7596e-09
-2.57367e-09
2.21535e-09
-3.44186e-09
2.67735e-09
-4.43902e-09
3.14061e-09
-5.56485e-09
3.601e-09
-6.81807e-09
4.05517e-09
-8.19653e-09
4.50036e-09
-9.69747e-09
4.93431e-09
-1.13175e-08
5.35511e-09
-1.30527e-08
5.76125e-09
-1.48989e-08
6.15144e-09
-1.68514e-08
6.52467e-09
-1.89053e-08
6.88008e-09
-2.10556e-08
7.21701e-09
-2.32969e-08
7.53494e-09
-2.56238e-08
7.83342e-09
-2.80307e-08
8.11218e-09
-3.0512e-08
8.37098e-09
-3.30621e-08
8.60973e-09
-3.56751e-08
8.82831e-09
-3.83453e-08
9.02676e-09
-4.1067e-08
9.20511e-09
-4.38344e-08
9.36347e-09
-4.66418e-08
9.50198e-09
-4.94835e-08
9.62081e-09
-5.23539e-08
9.72017e-09
-5.52474e-08
9.8003e-09
-5.81585e-08
9.86143e-09
-6.10817e-08
9.90388e-09
-6.40116e-08
9.92791e-09
-6.69431e-08
9.93385e-09
-6.98708e-08
9.92202e-09
-7.27897e-08
9.89276e-09
-7.56948e-08
9.84642e-09
-7.85812e-08
9.78336e-09
-8.14441e-08
9.70396e-09
-8.42788e-08
9.60859e-09
-8.70807e-08
9.49764e-09
-8.98453e-08
9.37149e-09
-9.25683e-08
9.23056e-09
-9.52455e-08
9.07523e-09
-9.78727e-08
8.90593e-09
-1.00446e-07
8.72306e-09
-1.02961e-07
8.52704e-09
-1.05415e-07
8.31829e-09
-1.07803e-07
8.09723e-09
-1.10123e-07
7.86428e-09
-1.12371e-07
7.61987e-09
-1.14543e-07
7.36442e-09
-1.16636e-07
7.09838e-09
-1.18648e-07
6.82215e-09
-1.20576e-07
6.53619e-09
-1.22416e-07
6.24092e-09
-1.24166e-07
5.93679e-09
-1.25825e-07
5.62424e-09
-1.27388e-07
5.30371e-09
-1.28855e-07
4.97566e-09
-1.30223e-07
4.64054e-09
-1.3149e-07
4.29881e-09
-1.32654e-07
3.95094e-09
-1.33714e-07
3.59739e-09
-1.34668e-07
3.23863e-09
-1.35515e-07
2.87514e-09
-1.36253e-07
2.5074e-09
-1.36882e-07
2.13588e-09
-1.374e-07
1.76108e-09
-1.37807e-07
1.38349e-09
-1.38101e-07
1.0036e-09
-1.38283e-07
6.21923e-10
-1.38352e-07
2.38946e-10
-1.38308e-07
-1.44823e-10
-1.38151e-07
-5.28873e-10
-1.3788e-07
-9.12687e-10
-1.37497e-07
-1.29575e-09
-1.37e-07
-1.67755e-09
-1.36392e-07
-2.05756e-09
-1.35672e-07
-2.43525e-09
-1.34842e-07
-2.8101e-09
-1.33902e-07
-3.18157e-09
-1.32854e-07
-3.54914e-09
-1.31699e-07
-3.91226e-09
-1.30438e-07
-4.27038e-09
-1.29074e-07
-4.62298e-09
-1.27607e-07
-4.96949e-09
-1.2604e-07
-5.30938e-09
-1.24375e-07
-5.6421e-09
-1.22614e-07
-5.9671e-09
-1.2076e-07
-6.28383e-09
-1.18815e-07
-6.59173e-09
-1.16783e-07
-6.89028e-09
-1.14665e-07
-7.17892e-09
-1.12465e-07
-7.45712e-09
-1.10187e-07
-7.72434e-09
-1.07833e-07
-7.98004e-09
-1.05408e-07
-8.2237e-09
-1.02915e-07
-8.4548e-09
-1.00357e-07
-8.6728e-09
-9.77394e-08
-8.87721e-09
-9.50657e-08
-9.06751e-09
-9.23403e-08
-9.24322e-09
-8.95677e-08
-9.40385e-09
-8.67524e-08
-9.54892e-09
-8.38991e-08
-9.67795e-09
-8.10126e-08
-9.79051e-09
-7.8098e-08
-9.88614e-09
-7.51602e-08
-9.96443e-09
-7.22045e-08
-1.0025e-08
-6.92362e-08
-1.00674e-08
-6.62606e-08
-1.00913e-08
-6.32833e-08
-1.00963e-08
-6.03098e-08
-1.00822e-08
-5.73457e-08
-1.00486e-08
-5.43969e-08
-9.99531e-09
-5.1469e-08
-9.92203e-09
-4.85679e-08
-9.82857e-09
-4.56996e-08
-9.71477e-09
-4.28698e-08
-9.58051e-09
-4.00846e-08
-9.42568e-09
-3.73498e-08
-9.25024e-09
-3.46715e-08
-9.05418e-09
-3.20553e-08
-8.83755e-09
-2.95073e-08
-8.60045e-09
-2.70332e-08
-8.34306e-09
-2.46386e-08
-8.06562e-09
-2.23291e-08
-7.76846e-09
-2.01103e-08
-7.45197e-09
-1.79873e-08
-7.11666e-09
-1.59652e-08
-6.76315e-09
-1.40488e-08
-6.39219e-09
-1.22427e-08
-6.00467e-09
-1.05511e-08
-5.60168e-09
-8.97767e-09
-5.18448e-09
-7.52586e-09
-4.75458e-09
-6.19843e-09
-4.31378e-09
-4.99755e-09
-3.8642e-09
-3.92464e-09
-3.40838e-09
-2.98029e-09
-2.94929e-09
-2.16409e-09
-2.4905e-09
-1.47449e-09
-2.03626e-09
-9.08602e-10
-1.59164e-09
-4.62041e-10
-1.16271e-09
-1.28669e-10
-7.56716e-10
9.96372e-11
-3.82323e-10
2.33242e-10
-4.98381e-11
2.85042e-10
2.28524e-10
2.70791e-10
4.38392e-10
2.09534e-10
5.63033e-10
1.24207e-10
5.83293e-10
4.26517e-11
4.77588e-10
2.20333e-10
2.5145e-11
-1.94109e-10
6.16776e-11
-4.45189e-10
8.03178e-11
-5.50157e-10
5.60637e-11
-4.90988e-10
-3.29297e-11
-2.92063e-10
-2.05511e-10
1.85467e-11
-4.77572e-10
4.16987e-10
-8.62259e-10
8.83228e-10
-1.37004e-09
1.40059e-09
-2.00911e-09
1.95531e-09
-2.78544e-09
2.53593e-09
-3.70315e-09
3.13305e-09
-4.76466e-09
3.73885e-09
-5.97097e-09
4.34691e-09
-7.32182e-09
4.95185e-09
-8.81593e-09
5.54928e-09
-1.04511e-08
6.13548e-09
-1.22242e-08
6.70743e-09
-1.41317e-08
7.26258e-09
-1.61692e-08
7.79883e-09
-1.83322e-08
8.31443e-09
-2.06155e-08
8.80796e-09
-2.30137e-08
9.27826e-09
-2.55211e-08
9.72438e-09
-2.81317e-08
1.01455e-08
-3.08394e-08
1.05412e-08
-3.36381e-08
1.09108e-08
-3.65213e-08
1.12542e-08
-3.94826e-08
1.1571e-08
-4.25155e-08
1.18612e-08
-4.56134e-08
1.21247e-08
-4.87699e-08
1.23616e-08
-5.19784e-08
1.2572e-08
-5.52324e-08
1.27559e-08
-5.85253e-08
1.29137e-08
-6.18508e-08
1.30456e-08
-6.52024e-08
1.31519e-08
-6.85739e-08
1.32329e-08
-7.1959e-08
1.32889e-08
-7.53515e-08
1.33204e-08
-7.87453e-08
1.33277e-08
-8.21346e-08
1.33113e-08
-8.55134e-08
1.32716e-08
-8.8876e-08
1.3209e-08
-9.22167e-08
1.31241e-08
-9.553e-08
1.30173e-08
-9.88106e-08
1.28891e-08
-1.02053e-07
1.27401e-08
-1.05252e-07
1.25707e-08
-1.08403e-07
1.23815e-08
-1.11501e-07
1.21731e-08
-1.14541e-07
1.19458e-08
-1.17518e-07
1.17004e-08
-1.20429e-07
1.14374e-08
-1.23268e-07
1.11573e-08
-1.26031e-07
1.08606e-08
-1.28715e-07
1.0548e-08
-1.31315e-07
1.02201e-08
-1.33828e-07
9.87729e-09
-1.3625e-07
9.52029e-09
-1.38577e-07
9.14963e-09
-1.40807e-07
8.76591e-09
-1.42936e-07
8.36971e-09
-1.44961e-07
7.96162e-09
-1.46879e-07
7.54225e-09
-1.48687e-07
7.11219e-09
-1.50383e-07
6.67204e-09
-1.51965e-07
6.22242e-09
-1.5343e-07
5.76395e-09
-1.54777e-07
5.29725e-09
-1.56002e-07
4.82294e-09
-1.57105e-07
4.34166e-09
-1.58084e-07
3.85405e-09
-1.58938e-07
3.36074e-09
-1.59664e-07
2.86238e-09
-1.60263e-07
2.35963e-09
-1.60732e-07
1.85315e-09
-1.61072e-07
1.3436e-09
-1.61282e-07
8.31655e-10
-1.61361e-07
3.17974e-10
-1.61309e-07
-1.96758e-10
-1.61126e-07
-7.11853e-10
-1.60812e-07
-1.22663e-09
-1.60368e-07
-1.74039e-09
-1.59793e-07
-2.25243e-09
-1.59088e-07
-2.76207e-09
-1.58255e-07
-3.26858e-09
-1.57294e-07
-3.77127e-09
-1.56206e-07
-4.26942e-09
-1.54993e-07
-4.76231e-09
-1.53656e-07
-5.24921e-09
-1.52197e-07
-5.72941e-09
-1.50618e-07
-6.20216e-09
-1.4892e-07
-6.66675e-09
-1.47107e-07
-7.12245e-09
-1.45181e-07
-7.56851e-09
-1.43144e-07
-8.0042e-09
-1.40999e-07
-8.42879e-09
-1.38749e-07
-8.84155e-09
-1.36397e-07
-9.24174e-09
-1.33948e-07
-9.62865e-09
-1.31403e-07
-1.00015e-08
-1.28768e-07
-1.03597e-08
-1.26046e-07
-1.07024e-08
-1.2324e-07
-1.1029e-08
-1.20356e-07
-1.13388e-08
-1.17398e-07
-1.16309e-08
-1.1437e-07
-1.19049e-08
-1.11278e-07
-1.216e-08
-1.08126e-07
-1.23955e-08
-1.04919e-07
-1.26108e-08
-1.01662e-07
-1.28053e-08
-9.83618e-08
-1.29784e-08
-9.50229e-08
-1.31294e-08
-9.16513e-08
-1.32578e-08
-8.82527e-08
-1.3363e-08
-8.48332e-08
-1.34445e-08
-8.13988e-08
-1.35018e-08
-7.79557e-08
-1.35344e-08
-7.45102e-08
-1.35418e-08
-7.10688e-08
-1.35237e-08
-6.76378e-08
-1.34796e-08
-6.42239e-08
-1.34092e-08
-6.08337e-08
-1.33123e-08
-5.74737e-08
-1.31885e-08
-5.41509e-08
-1.30376e-08
-5.08718e-08
-1.28596e-08
-4.76433e-08
-1.26542e-08
-4.44722e-08
-1.24214e-08
-4.1365e-08
-1.21613e-08
-3.83286e-08
-1.1874e-08
-3.53696e-08
-1.15595e-08
-3.24944e-08
-1.12182e-08
-2.97096e-08
-1.08505e-08
-2.70214e-08
-1.04567e-08
-2.44359e-08
-1.00374e-08
-2.19591e-08
-9.59346e-09
-1.95966e-08
-9.12562e-09
-1.73539e-08
-8.63495e-09
-1.52359e-08
-8.12268e-09
-1.32473e-08
-7.59029e-09
-1.13922e-08
-7.0395e-09
-9.67444e-09
-6.47237e-09
-8.09693e-09
-5.89129e-09
-6.66203e-09
-5.29911e-09
-5.37126e-09
-4.69915e-09
-4.2252e-09
-4.09535e-09
-3.22336e-09
-3.49233e-09
-2.36404e-09
-2.89558e-09
-1.64413e-09
-2.31154e-09
-1.05896e-09
-1.74787e-09
-6.02086e-10
-1.21359e-09
-2.65058e-10
-7.1935e-10
-3.72081e-11
-2.77688e-10
9.46263e-11
9.66885e-11
1.46414e-10
3.86603e-10
1.37347e-10
5.72097e-10
9.04205e-11
6.30219e-10
3.32965e-11
5.3471e-10
2.53628e-10
1.42754e-11
-2.08391e-10
2.03063e-11
-4.51214e-10
-1.03368e-11
-5.19512e-10
-1.01562e-10
-3.99767e-10
-2.74104e-10
-1.19517e-10
-5.46003e-10
2.90446e-10
-9.32488e-10
8.03467e-10
-1.44631e-09
1.39706e-09
-2.0978e-09
2.05207e-09
-2.89497e-09
2.75248e-09
-3.84383e-09
3.4848e-09
-4.94852e-09
4.23775e-09
-6.21153e-09
5.00187e-09
-7.63387e-09
5.76925e-09
-9.21529e-09
6.53327e-09
-1.09544e-08
7.28834e-09
-1.28487e-08
8.02986e-09
-1.48952e-08
8.7539e-09
-1.70898e-08
9.45721e-09
-1.94281e-08
1.01371e-08
-2.19048e-08
1.07912e-08
-2.45146e-08
1.14177e-08
-2.72514e-08
1.20151e-08
-3.01091e-08
1.25821e-08
-3.30811e-08
1.31176e-08
-3.61608e-08
1.36209e-08
-3.93413e-08
1.40913e-08
-4.26155e-08
1.45284e-08
-4.59763e-08
1.49319e-08
-4.94166e-08
1.53015e-08
-5.29291e-08
1.56372e-08
-5.65066e-08
1.5939e-08
-6.01417e-08
1.62071e-08
-6.38272e-08
1.64414e-08
-6.75558e-08
1.66424e-08
-7.13204e-08
1.68103e-08
-7.51139e-08
1.69454e-08
-7.89291e-08
1.70481e-08
-8.27592e-08
1.7119e-08
-8.65971e-08
1.71583e-08
-9.04361e-08
1.71667e-08
-9.42695e-08
1.71447e-08
-9.80907e-08
1.70928e-08
-1.01893e-07
1.70115e-08
-1.05671e-07
1.69016e-08
-1.09417e-07
1.67636e-08
-1.13126e-07
1.65981e-08
-1.16792e-07
1.64059e-08