/*--------------------------------*- C++ -*----------------------------------*\
  =========                 |
  \\      /  F ield         | OpenFOAM: The Open Source CFD Toolbox
   \\    /   O peration     | Website:  https://openfoam.org
    \\  /    A nd           | Version:  7
     \\/     M anipulation  |
\*---------------------------------------------------------------------------*/
FoamFile
{
    version     2.0;
    format      ascii;
    class       volVectorField;
    location    "0.1";
    object      U;
}
// * * * * * * * * * * * * * * * * * * * * * * * * * * * * * * * * * * * * * //

dimensions      [0 1 -1 0 0 0 0];

internalField   nonuniform List<vector> 
25600
(
(9.61081e-09 -2.94209e-07 0)
(2.94421e-06 -2.58519e-06 0)
(1.04376e-05 -4.06115e-06 0)
(2.00363e-05 -4.30224e-06 0)
(2.95144e-05 -3.91006e-06 0)
(3.76903e-05 -3.2507e-06 0)
(4.39922e-05 -2.46985e-06 0)
(4.80524e-05 -1.6441e-06 0)
(4.96721e-05 -7.94361e-07 0)
(4.87271e-05 4.74318e-08 0)
(4.51492e-05 8.8813e-07 0)
(3.89209e-05 1.71101e-06 0)
(3.00486e-05 2.50856e-06 0)
(1.8568e-05 3.28431e-06 0)
(4.51548e-06 4.04347e-06 0)
(-1.20437e-05 4.77544e-06 0)
(-3.10408e-05 5.48889e-06 0)
(-5.24094e-05 6.17103e-06 0)
(-7.60593e-05 6.82405e-06 0)
(-0.000101895 7.4493e-06 0)
(-0.000129836 8.04758e-06 0)
(-0.000159782 8.62193e-06 0)
(-0.000191629 9.16708e-06 0)
(-0.000225286 9.67889e-06 0)
(-0.000260639 1.01578e-05 0)
(-0.000297585 1.06069e-05 0)
(-0.000336023 1.10264e-05 0)
(-0.00037584 1.14116e-05 0)
(-0.00041693 1.1769e-05 0)
(-0.000459181 1.20921e-05 0)
(-0.000502498 1.23813e-05 0)
(-0.000546762 1.2641e-05 0)
(-0.000591873 1.28685e-05 0)
(-0.000637736 1.30659e-05 0)
(-0.000684235 1.32343e-05 0)
(-0.000731282 1.33766e-05 0)
(-0.000778779 1.34909e-05 0)
(-0.000826625 1.35774e-05 0)
(-0.000874729 1.36395e-05 0)
(-0.000923 1.36759e-05 0)
(-0.000971346 1.36855e-05 0)
(-0.00101968 1.36714e-05 0)
(-0.00106791 1.36336e-05 0)
(-0.00111596 1.35696e-05 0)
(-0.00116374 1.34794e-05 0)
(-0.00121116 1.33653e-05 0)
(-0.00125816 1.32302e-05 0)
(-0.00130465 1.30753e-05 0)
(-0.00135057 1.29007e-05 0)
(-0.00139582 1.27069e-05 0)
(-0.00144036 1.24941e-05 0)
(-0.0014841 1.22602e-05 0)
(-0.00152698 1.20055e-05 0)
(-0.00156893 1.17336e-05 0)
(-0.0016099 1.14467e-05 0)
(-0.00164983 1.11445e-05 0)
(-0.00168866 1.08264e-05 0)
(-0.00172632 1.04934e-05 0)
(-0.00176278 1.01466e-05 0)
(-0.00179798 9.78505e-06 0)
(-0.00183186 9.40927e-06 0)
(-0.00186438 9.02011e-06 0)
(-0.0018955 8.61813e-06 0)
(-0.00192517 8.20376e-06 0)
(-0.00195334 7.77669e-06 0)
(-0.00197998 7.33814e-06 0)
(-0.00200505 6.88957e-06 0)
(-0.0020285 6.43047e-06 0)
(-0.00205032 5.96047e-06 0)
(-0.00207046 5.48016e-06 0)
(-0.00208889 4.99146e-06 0)
(-0.00210559 4.49662e-06 0)
(-0.00212053 3.9953e-06 0)
(-0.00213369 3.48668e-06 0)
(-0.00214505 2.972e-06 0)
(-0.0021546 2.45251e-06 0)
(-0.00216231 1.92907e-06 0)
(-0.00216817 1.40298e-06 0)
(-0.00217218 8.75058e-07 0)
(-0.00217433 3.45949e-07 0)
(-0.00217462 -1.83503e-07 0)
(-0.00217303 -7.13318e-07 0)
(-0.00216958 -1.24336e-06 0)
(-0.00216426 -1.77182e-06 0)
(-0.00215708 -2.29671e-06 0)
(-0.00214805 -2.81763e-06 0)
(-0.00213718 -3.33517e-06 0)
(-0.00212448 -3.84962e-06 0)
(-0.00210997 -4.36012e-06 0)
(-0.00209366 -4.86487e-06 0)
(-0.00207558 -5.3624e-06 0)
(-0.00205574 -5.85252e-06 0)
(-0.00203418 -6.33557e-06 0)
(-0.00201092 -6.81124e-06 0)
(-0.00198599 -7.27845e-06 0)
(-0.00195942 -7.73596e-06 0)
(-0.00193125 -8.18267e-06 0)
(-0.00190152 -8.61757e-06 0)
(-0.00187026 -9.03969e-06 0)
(-0.00183753 -9.4485e-06 0)
(-0.00180338 -9.84412e-06 0)
(-0.00176784 -1.02268e-05 0)
(-0.00173097 -1.05961e-05 0)
(-0.00169283 -1.09504e-05 0)
(-0.00165346 -1.1288e-05 0)
(-0.00161293 -1.1608e-05 0)
(-0.00157131 -1.19102e-05 0)
(-0.00152865 -1.2195e-05 0)
(-0.00148502 -1.2462e-05 0)
(-0.00144048 -1.27103e-05 0)
(-0.00139512 -1.29384e-05 0)
(-0.001349 -1.31451e-05 0)
(-0.0013022 -1.33297e-05 0)
(-0.00125481 -1.34917e-05 0)
(-0.00120689 -1.36303e-05 0)
(-0.00115854 -1.37443e-05 0)
(-0.00110984 -1.38333e-05 0)
(-0.00106089 -1.38968e-05 0)
(-0.00101176 -1.39342e-05 0)
(-0.000962564 -1.39443e-05 0)
(-0.000913388 -1.39258e-05 0)
(-0.000864334 -1.38776e-05 0)
(-0.000815501 -1.37993e-05 0)
(-0.000766993 -1.3691e-05 0)
(-0.000718911 -1.35531e-05 0)
(-0.000671357 -1.3386e-05 0)
(-0.000624435 -1.31892e-05 0)
(-0.000578249 -1.29619e-05 0)
(-0.000532905 -1.27032e-05 0)
(-0.00048851 -1.24127e-05 0)
(-0.000445173 -1.20903e-05 0)
(-0.000403002 -1.1736e-05 0)
(-0.000362105 -1.13498e-05 0)
(-0.000322588 -1.09321e-05 0)
(-0.000284557 -1.04836e-05 0)
(-0.000248118 -1.00047e-05 0)
(-0.000213374 -9.49552e-06 0)
(-0.000180426 -8.95576e-06 0)
(-0.000149376 -8.38535e-06 0)
(-0.000120321 -7.78514e-06 0)
(-9.33577e-05 -7.15595e-06 0)
(-6.85763e-05 -6.49892e-06 0)
(-4.60621e-05 -5.81576e-06 0)
(-2.58935e-05 -5.10794e-06 0)
(-8.14131e-06 -4.37761e-06 0)
(7.1336e-06 -3.6273e-06 0)
(1.98811e-05 -2.85946e-06 0)
(3.00653e-05 -2.07806e-06 0)
(3.76691e-05 -1.28853e-06 0)
(4.26992e-05 -4.9841e-07 0)
(4.51942e-05 2.81759e-07 0)
(4.52347e-05 1.03722e-06 0)
(4.29569e-05 1.74664e-06 0)
(3.85721e-05 2.37979e-06 0)
(3.23971e-05 2.89007e-06 0)
(2.48962e-05 3.20756e-06 0)
(1.67289e-05 3.22915e-06 0)
(8.83978e-06 2.79938e-06 0)
(2.69011e-06 1.7261e-06 0)
(1.42274e-07 1.48617e-07 0)
(8.23049e-07 -2.44582e-06 0)
(7.78863e-06 -1.03244e-05 0)
(2.20453e-05 -1.59522e-05 0)
(3.99287e-05 -1.74412e-05 0)
(5.77704e-05 -1.61693e-05 0)
(7.3005e-05 -1.32659e-05 0)
(8.40011e-05 -9.38623e-06 0)
(8.96375e-05 -4.89894e-06 0)
(8.91169e-05 -5.13144e-08 0)
(8.19315e-05 5.00995e-06 0)
(6.77856e-05 1.01819e-05 0)
(4.6489e-05 1.5379e-05 0)
(1.79816e-05 2.05565e-05 0)
(-1.77244e-05 2.56625e-05 0)
(-6.05619e-05 3.06712e-05 0)
(-0.000110409 3.55683e-05 0)
(-0.000167104 4.03247e-05 0)
(-0.000230448 4.49278e-05 0)
(-0.000300224 4.93599e-05 0)
(-0.000376211 5.36088e-05 0)
(-0.000458145 5.76741e-05 0)
(-0.000545764 6.15513e-05 0)
(-0.000638793 6.5232e-05 0)
(-0.00073694 6.8703e-05 0)
(-0.000839927 7.1973e-05 0)
(-0.000947458 7.50272e-05 0)
(-0.00105923 7.78723e-05 0)
(-0.00117494 8.05092e-05 0)
(-0.0012943 8.29276e-05 0)
(-0.001417 8.51399e-05 0)
(-0.00154273 8.71358e-05 0)
(-0.00167121 8.89304e-05 0)
(-0.00180213 9.05118e-05 0)
(-0.0019352 9.18934e-05 0)
(-0.00207014 9.30782e-05 0)
(-0.00220666 9.40655e-05 0)
(-0.00234448 9.48608e-05 0)
(-0.00248332 9.5468e-05 0)
(-0.00262291 9.58915e-05 0)
(-0.00276299 9.61326e-05 0)
(-0.00290329 9.61947e-05 0)
(-0.00304356 9.60842e-05 0)
(-0.00318355 9.58032e-05 0)
(-0.00332301 9.53532e-05 0)
(-0.00346169 9.47388e-05 0)
(-0.00359937 9.39648e-05 0)
(-0.00373581 9.30343e-05 0)
(-0.00387079 9.19521e-05 0)
(-0.0040041 9.07244e-05 0)
(-0.00413551 8.93553e-05 0)
(-0.00426483 8.78478e-05 0)
(-0.00439186 8.62049e-05 0)
(-0.00451639 8.44304e-05 0)
(-0.00463825 8.25309e-05 0)
(-0.00475725 8.05111e-05 0)
(-0.00487321 7.83743e-05 0)
(-0.00498597 7.61254e-05 0)
(-0.00509537 7.37682e-05 0)
(-0.00520124 7.13065e-05 0)
(-0.00530343 6.87435e-05 0)
(-0.0054018 6.60826e-05 0)
(-0.00549621 6.3329e-05 0)
(-0.00558653 6.04847e-05 0)
(-0.00567262 5.75526e-05 0)
(-0.00575436 5.45376e-05 0)
(-0.00583164 5.14444e-05 0)
(-0.00590435 4.82779e-05 0)
(-0.00597237 4.50414e-05 0)
(-0.00603563 4.17374e-05 0)
(-0.00609401 3.83718e-05 0)
(-0.00614744 3.49503e-05 0)
(-0.00619584 3.14776e-05 0)
(-0.00623914 2.79587e-05 0)
(-0.00627728 2.4397e-05 0)
(-0.0063102 2.07969e-05 0)
(-0.00633784 1.71643e-05 0)
(-0.00636016 1.35044e-05 0)
(-0.00637713 9.82256e-06 0)
(-0.00638873 6.1249e-06 0)
(-0.00639492 2.41669e-06 0)
(-0.00639569 -1.2986e-06 0)
(-0.00639104 -5.01733e-06 0)
(-0.00638096 -8.73406e-06 0)
(-0.00636547 -1.24418e-05 0)
(-0.00634457 -1.61341e-05 0)
(-0.0063183 -1.98069e-05 0)
(-0.00628667 -2.34579e-05 0)
(-0.00624973 -2.70834e-05 0)
(-0.00620751 -3.06773e-05 0)
(-0.00616008 -3.42332e-05 0)
(-0.00610748 -3.77453e-05 0)
(-0.00604978 -4.12089e-05 0)
(-0.00598706 -4.46196e-05 0)
(-0.0059194 -4.79735e-05 0)
(-0.00584689 -5.12656e-05 0)
(-0.00576962 -5.44898e-05 0)
(-0.0056877 -5.76393e-05 0)
(-0.00560123 -6.07077e-05 0)
(-0.00551035 -6.36894e-05 0)
(-0.00541518 -6.65797e-05 0)
(-0.00531585 -6.93755e-05 0)
(-0.00521251 -7.20737e-05 0)
(-0.00510531 -7.46694e-05 0)
(-0.00499441 -7.71556e-05 0)
(-0.00487996 -7.95252e-05 0)
(-0.00476214 -8.1773e-05 0)
(-0.00464114 -8.38952e-05 0)
(-0.00451715 -8.58881e-05 0)
(-0.00439035 -8.77475e-05 0)
(-0.00426094 -8.94683e-05 0)
(-0.00412915 -9.10448e-05 0)
(-0.00399518 -9.24709e-05 0)
(-0.00385926 -9.37409e-05 0)
(-0.00372161 -9.48498e-05 0)
(-0.00358249 -9.57931e-05 0)
(-0.00344212 -9.65665e-05 0)
(-0.00330077 -9.71657e-05 0)
(-0.00315868 -9.75867e-05 0)
(-0.00301613 -9.78244e-05 0)
(-0.00287338 -9.78735e-05 0)
(-0.0027307 -9.77288e-05 0)
(-0.00258838 -9.73862e-05 0)
(-0.0024467 -9.68434e-05 0)
(-0.00230595 -9.60986e-05 0)
(-0.00216642 -9.51506e-05 0)
(-0.0020284 -9.39979e-05 0)
(-0.0018922 -9.26388e-05 0)
(-0.00175811 -9.10709e-05 0)
(-0.00162644 -8.92918e-05 0)
(-0.00149748 -8.72995e-05 0)
(-0.00137155 -8.5093e-05 0)
(-0.00124895 -8.26727e-05 0)
(-0.00112997 -8.00395e-05 0)
(-0.00101493 -7.71954e-05 0)
(-0.000904127 -7.41432e-05 0)
(-0.000797847 -7.08853e-05 0)
(-0.000696385 -6.74243e-05 0)
(-0.000600026 -6.37631e-05 0)
(-0.000509045 -5.99055e-05 0)
(-0.000423712 -5.58574e-05 0)
(-0.000344284 -5.16273e-05 0)
(-0.000271003 -4.72252e-05 0)
(-0.000204095 -4.26633e-05 0)
(-0.000143762 -3.79567e-05 0)
(-9.01823e-05 -3.31228e-05 0)
(-4.35027e-05 -2.81833e-05 0)
(-3.83268e-06 -2.31649e-05 0)
(2.87651e-05 -1.81007e-05 0)
(5.42868e-05 -1.30345e-05 0)
(7.28016e-05 -8.0222e-06 0)
(8.44713e-05 -3.13751e-06 0)
(8.9575e-05 1.52239e-06 0)
(8.85408e-05 5.82859e-06 0)
(8.19886e-05 9.60781e-06 0)
(7.07848e-05 1.26256e-05 0)
(5.61105e-05 1.45631e-05 0)
(3.95082e-05 1.50008e-05 0)
(2.29459e-05 1.34045e-05 0)
(9.1748e-06 9.21416e-06 0)
(1.69846e-06 2.68428e-06 0)
(1.43025e-06 -7.00282e-06 0)
(1.01402e-05 -2.28192e-05 0)
(2.65588e-05 -3.40081e-05 0)
(4.65356e-05 -3.71815e-05 0)
(6.58628e-05 -3.42696e-05 0)
(8.13935e-05 -2.72574e-05 0)
(9.08242e-05 -1.74586e-05 0)
(9.23908e-05 -5.78529e-06 0)
(8.48285e-05 7.12062e-06 0)
(6.72623e-05 2.08356e-05 0)
(3.9075e-05 3.50034e-05 0)
(-7.68017e-08 4.94172e-05 0)
(-5.03892e-05 6.38594e-05 0)
(-0.000111923 7.82158e-05 0)
(-0.0001846 9.23672e-05 0)
(-0.000268285 0.00010623 0)
(-0.00036276 0.000119738 0)
(-0.000467751 0.000132843 0)
(-0.000582943 0.000145484 0)
(-0.000707965 0.000157636 0)
(-0.000842445 0.000169271 0)
(-0.000985975 0.000180366 0)
(-0.00113812 0.000190899 0)
(-0.00129844 0.000200867 0)
(-0.00146648 0.000210237 0)
(-0.00164178 0.000219023 0)
(-0.00182387 0.000227206 0)
(-0.00201227 0.000234785 0)
(-0.00220651 0.000241763 0)
(-0.0024061 0.000248137 0)
(-0.00261059 0.000253918 0)
(-0.00281948 0.000259095 0)
(-0.00303231 0.000263694 0)
(-0.00324861 0.000267706 0)
(-0.00346792 0.000271145 0)
(-0.00368979 0.000274022 0)
(-0.00391375 0.00027634 0)
(-0.00413936 0.000278112 0)
(-0.00436619 0.000279348 0)
(-0.00459381 0.000280055 0)
(-0.00482179 0.000280243 0)
(-0.00504972 0.000279926 0)
(-0.00527719 0.000279111 0)
(-0.0055038 0.00027781 0)
(-0.00572916 0.000276033 0)
(-0.00595289 0.000273793 0)
(-0.00617462 0.000271099 0)
(-0.00639398 0.000267964 0)
(-0.00661062 0.000264399 0)
(-0.0068242 0.000260417 0)
(-0.00703438 0.00025603 0)
(-0.00724083 0.00025125 0)
(-0.00744324 0.000246088 0)
(-0.0076413 0.000240558 0)
(-0.00783472 0.000234673 0)
(-0.0080232 0.000228443 0)
(-0.00820648 0.000221881 0)
(-0.00838427 0.000215 0)
(-0.00855633 0.00020781 0)
(-0.00872241 0.000200323 0)
(-0.00888227 0.000192552 0)
(-0.00903567 0.000184506 0)
(-0.00918241 0.000176199 0)
(-0.00932227 0.000167639 0)
(-0.00945505 0.000158839 0)
(-0.00958058 0.000149813 0)
(-0.00969866 0.000140573 0)
(-0.00980913 0.000131131 0)
(-0.00991183 0.0001215 0)
(-0.0100066 0.000111691 0)
(-0.0100934 0.000101722 0)
(-0.0101719 9.16047e-05 0)
(-0.0102422 8.13513e-05 0)
(-0.0103041 7.0976e-05 0)
(-0.0103575 6.04929e-05 0)
(-0.0104023 4.99153e-05 0)
(-0.0104386 3.92584e-05 0)
(-0.0104661 2.85374e-05 0)
(-0.0104848 1.77667e-05 0)
(-0.0104948 6.96103e-06 0)
(-0.010496 -3.86622e-06 0)
(-0.0104884 -1.47025e-05 0)
(-0.0104719 -2.55327e-05 0)
(-0.0104467 -3.63395e-05 0)
(-0.0104126 -4.71073e-05 0)
(-0.0103699 -5.78234e-05 0)
(-0.0103184 -6.84752e-05 0)
(-0.0102582 -7.90493e-05 0)
(-0.0101895 -8.95302e-05 0)
(-0.0101123 -9.99012e-05 0)
(-0.0100268 -0.000110147 0)
(-0.00993289 -0.000120252 0)
(-0.00983086 -0.000130203 0)
(-0.00972078 -0.000139985 0)
(-0.00960282 -0.000149583 0)
(-0.00947713 -0.000158981 0)
(-0.00934387 -0.000168162 0)
(-0.00920324 -0.00017711 0)
(-0.00905543 -0.000185807 0)
(-0.00890064 -0.00019424 0)
(-0.0087391 -0.000202396 0)
(-0.00857103 -0.000210262 0)
(-0.0083967 -0.000217822 0)
(-0.00821635 -0.00022506 0)
(-0.00803025 -0.000231958 0)
(-0.00783869 -0.000238503 0)
(-0.00764195 -0.000244679 0)
(-0.00744036 -0.000250474 0)
(-0.00723422 -0.000255874 0)
(-0.00702387 -0.000260865 0)
(-0.00680965 -0.000265432 0)
(-0.00659191 -0.000269558 0)
(-0.00637102 -0.00027323 0)
(-0.00614734 -0.000276433 0)
(-0.00592128 -0.000279154 0)
(-0.00569321 -0.00028138 0)
(-0.00546356 -0.0002831 0)
(-0.00523273 -0.000284302 0)
(-0.00500115 -0.000284972 0)
(-0.00476925 -0.000285099 0)
(-0.00453747 -0.000284669 0)
(-0.00430627 -0.000283673 0)
(-0.0040761 -0.000282104 0)
(-0.00384742 -0.000279955 0)
(-0.0036207 -0.000277219 0)
(-0.00339641 -0.000273893 0)
(-0.00317504 -0.00026997 0)
(-0.00295705 -0.000265445 0)
(-0.00274294 -0.000260315 0)
(-0.00253319 -0.000254576 0)
(-0.00232828 -0.000248227 0)
(-0.0021287 -0.000241269 0)
(-0.00193494 -0.000233704 0)
(-0.00174746 -0.000225539 0)
(-0.00156674 -0.00021678 0)
(-0.00139325 -0.000207435 0)
(-0.00122745 -0.000197515 0)
(-0.00106979 -0.000187032 0)
(-0.000920689 -0.000176001 0)
(-0.00078057 -0.000164443 0)
(-0.000649828 -0.000152384 0)
(-0.00052883 -0.000139856 0)
(-0.000417916 -0.000126897 0)
(-0.000317386 -0.000113553 0)
(-0.000227501 -9.98813e-05 0)
(-0.000148464 -8.59495e-05 0)
(-8.0416e-05 -7.18411e-05 0)
(-2.34199e-05 -5.766e-05 0)
(2.25581e-05 -4.35363e-05 0)
(5.76683e-05 -2.96343e-05 0)
(8.2204e-05 -1.61625e-05 0)
(9.66343e-05 -3.38678e-06 0)
(0.000101645 8.35163e-06 0)
(9.81876e-05 1.8615e-05 0)
(8.75393e-05 2.68401e-05 0)
(7.13691e-05 3.23129e-05 0)
(5.17594e-05 3.41573e-05 0)
(3.12359e-05 3.13616e-05 0)
(1.32985e-05 2.29532e-05 0)
(2.74898e-06 8.78321e-06 0)
(1.95485e-06 -1.27098e-05 0)
(1.13411e-05 -3.66645e-05 0)
(2.76568e-05 -5.27221e-05 0)
(4.62501e-05 -5.67457e-05 0)
(6.28096e-05 -5.10396e-05 0)
(7.39635e-05 -3.82553e-05 0)
(7.7074e-05 -2.03765e-05 0)
(7.00264e-05 1.1038e-06 0)
(5.12204e-05 2.51031e-05 0)
(1.94642e-05 5.07756e-05 0)
(-2.60334e-05 7.75207e-05 0)
(-8.58284e-05 0.000104844 0)
(-0.000160231 0.000132383 0)
(-0.000249343 0.000159849 0)
(-0.000353164 0.00018701 0)
(-0.000471536 0.000213685 0)
(-0.000604203 0.000239735 0)
(-0.000750841 0.000265035 0)
(-0.000911054 0.000289494 0)
(-0.00108439 0.00031304 0)
(-0.00127037 0.000335596 0)
(-0.00146845 0.000357128 0)
(-0.00167807 0.000377594 0)
(-0.00189866 0.000396955 0)
(-0.00212962 0.000415196 0)
(-0.00237033 0.000432293 0)
(-0.00262018 0.000448235 0)
(-0.00287852 0.000463013 0)
(-0.00314473 0.000476632 0)
(-0.00341819 0.000489076 0)
(-0.00369823 0.000500368 0)
(-0.00398422 0.000510504 0)
(-0.00427555 0.000519495 0)
(-0.00457157 0.000527357 0)
(-0.00487166 0.000534098 0)
(-0.00517519 0.000539736 0)
(-0.00548158 0.000544285 0)
(-0.0057902 0.000547764 0)
(-0.00610046 0.000550188 0)
(-0.00641179 0.000551578 0)
(-0.0067236 0.000551951 0)
(-0.00703532 0.000551327 0)
(-0.00734641 0.000549726 0)
(-0.00765633 0.000547168 0)
(-0.00796453 0.000543676 0)
(-0.0082705 0.000539273 0)
(-0.00857374 0.000533978 0)
(-0.00887374 0.000527814 0)
(-0.00917003 0.000520805 0)
(-0.00946212 0.000512972 0)
(-0.00974956 0.000504339 0)
(-0.0100319 0.00049493 0)
(-0.0103087 0.000484769 0)
(-0.0105796 0.000473879 0)
(-0.0108441 0.000462285 0)
(-0.0111019 0.00045001 0)
(-0.0113526 0.000437077 0)
(-0.0115957 0.000423511 0)
(-0.011831 0.000409334 0)
(-0.0120581 0.000394569 0)
(-0.0122767 0.000379242 0)
(-0.0124865 0.000363375 0)
(-0.0126871 0.00034699 0)
(-0.0128784 0.000330111 0)
(-0.0130599 0.000312762 0)
(-0.0132315 0.00029497 0)
(-0.0133929 0.000276758 0)
(-0.0135439 0.000258149 0)
(-0.0136843 0.000239171 0)
(-0.0138139 0.000219849 0)
(-0.0139324 0.00020021 0)
(-0.0140398 0.00018028 0)
(-0.0141358 0.000160084 0)
(-0.0142204 0.00013965 0)
(-0.0142933 0.000119005 0)
(-0.0143545 9.81763e-05 0)
(-0.0144039 7.71904e-05 0)
(-0.0144414 5.60767e-05 0)
(-0.014467 3.4865e-05 0)
(-0.0144806 1.35819e-05 0)
(-0.0144821 -7.7462e-06 0)
(-0.0144716 -2.90911e-05 0)
(-0.014449 -5.04235e-05 0)
(-0.0144143 -7.17131e-05 0)
(-0.0143677 -9.29303e-05 0)
(-0.0143091 -0.000114048 0)
(-0.0142385 -0.000135039 0)
(-0.0141562 -0.000155874 0)
(-0.0140621 -0.000176524 0)
(-0.0139565 -0.000196958 0)
(-0.0138393 -0.000217146 0)
(-0.0137109 -0.000237058 0)
(-0.0135712 -0.000256664 0)
(-0.0134206 -0.000275936 0)
(-0.0132592 -0.000294842 0)
(-0.0130872 -0.000313353 0)
(-0.0129049 -0.000331436 0)
(-0.0127125 -0.00034906 0)
(-0.0125103 -0.000366193 0)
(-0.0122985 -0.000382806 0)
(-0.0120775 -0.000398871 0)
(-0.0118477 -0.00041436 0)
(-0.0116092 -0.000429241 0)
(-0.0113625 -0.000443485 0)
(-0.011108 -0.00045706 0)
(-0.0108461 -0.000469937 0)
(-0.010577 -0.000482087 0)
(-0.0103014 -0.000493484 0)
(-0.0100195 -0.000504097 0)
(-0.00973187 -0.0005139 0)
(-0.00943897 -0.000522864 0)
(-0.00914127 -0.000530961 0)
(-0.00883928 -0.000538163 0)
(-0.00853349 -0.000544443 0)
(-0.00822444 -0.000549775 0)
(-0.00791267 -0.000554136 0)
(-0.00759872 -0.000557502 0)
(-0.00728317 -0.000559849 0)
(-0.00696659 -0.000561155 0)
(-0.00664956 -0.000561398 0)
(-0.0063327 -0.000560556 0)
(-0.0060166 -0.000558611 0)
(-0.00570188 -0.000555547 0)
(-0.00538918 -0.000551352 0)
(-0.00507911 -0.000546013 0)
(-0.00477232 -0.000539519 0)
(-0.00446946 -0.00053186 0)
(-0.00417117 -0.000523028 0)
(-0.00387811 -0.000513018 0)
(-0.00359092 -0.000501826 0)
(-0.00331026 -0.000489452 0)
(-0.00303678 -0.000475897 0)
(-0.00277112 -0.000461168 0)
(-0.00251391 -0.000445277 0)
(-0.0022658 -0.000428238 0)
(-0.0020274 -0.000410069 0)
(-0.00179932 -0.000390793 0)
(-0.00158215 -0.000370438 0)
(-0.00137646 -0.00034904 0)
(-0.00118278 -0.000326643 0)
(-0.00100164 -0.000303301 0)
(-0.000833497 -0.000279079 0)
(-0.000678795 -0.000254058 0)
(-0.000537909 -0.000228331 0)
(-0.000411158 -0.000202015 0)
(-0.000298785 -0.000175249 0)
(-0.000200946 -0.000148201 0)
(-0.00011769 -0.000121078 0)
(-4.89398e-05 -9.41364e-05 0)
(5.53502e-06 -6.76906e-05 0)
(4.61452e-05 -4.21336e-05 0)
(7.35189e-05 -1.79543e-05 0)
(8.85442e-05 4.23612e-06 0)
(9.24169e-05 2.3676e-05 0)
(8.66972e-05 3.94202e-05 0)
(7.33685e-05 5.03117e-05 0)
(5.48449e-05 5.49777e-05 0)
(3.4006e-05 5.18728e-05 0)
(1.48718e-05 3.94454e-05 0)
(3.16747e-06 1.65917e-05 0)
(2.2079e-06 -1.88108e-05 0)
(1.12129e-05 -4.99475e-05 0)
(2.55106e-05 -6.92404e-05 0)
(4.0112e-05 -7.24063e-05 0)
(5.07477e-05 -6.21617e-05 0)
(5.40227e-05 -4.1713e-05 0)
(4.71511e-05 -1.3659e-05 0)
(2.78424e-05 1.99958e-05 0)
(-5.70216e-06 5.76585e-05 0)
(-5.48205e-05 9.81135e-05 0)
(-0.000120514 0.000140399 0)
(-0.000203444 0.000183751 0)
(-0.000304008 0.000227586 0)
(-0.000422416 0.000271419 0)
(-0.000558659 0.000314872 0)
(-0.000712596 0.000357637 0)
(-0.000883969 0.000399468 0)
(-0.00107241 0.000440159 0)
(-0.00127746 0.000479556 0)
(-0.0014986 0.000517507 0)
(-0.00173525 0.000553925 0)
(-0.00198678 0.00058871 0)
(-0.00225252 0.0006218 0)
(-0.00253177 0.000653127 0)
(-0.00282381 0.000682662 0)
(-0.00312789 0.000710366 0)
(-0.00344326 0.000736212 0)
(-0.00376914 0.000760197 0)
(-0.00410477 0.000782294 0)
(-0.00444934 0.000802523 0)
(-0.00480209 0.000820868 0)
(-0.00516222 0.000837353 0)
(-0.00552895 0.000851981 0)
(-0.00590151 0.000864773 0)
(-0.00627911 0.000875748 0)
(-0.006661 0.000884927 0)
(-0.00704641 0.000892334 0)
(-0.00743459 0.000897995 0)
(-0.0078248 0.000901937 0)
(-0.00821631 0.000904191 0)
(-0.00860841 0.000904786 0)
(-0.00900038 0.000903751 0)
(-0.00939154 0.00090112 0)
(-0.0097812 0.000896926 0)
(-0.0101687 0.000891202 0)
(-0.0105534 0.000883983 0)
(-0.0109346 0.000875307 0)
(-0.0113118 0.000865208 0)
(-0.0116843 0.000853724 0)
(-0.0120515 0.000840891 0)
(-0.0124129 0.000826746 0)
(-0.0127678 0.000811326 0)
(-0.0131158 0.000794672 0)
(-0.0134564 0.000776821 0)
(-0.0137889 0.000757812 0)
(-0.014113 0.000737684 0)
(-0.0144281 0.000716476 0)
(-0.0147337 0.000694225 0)
(-0.0150295 0.000670971 0)
(-0.015315 0.000646751 0)
(-0.0155898 0.000621608 0)
(-0.0158535 0.000595577 0)
(-0.0161056 0.000568698 0)
(-0.016346 0.000541011 0)
(-0.0165742 0.000512556 0)
(-0.0167898 0.000483374 0)
(-0.0169927 0.000453506 0)
(-0.0171825 0.000422991 0)
(-0.0173588 0.000391871 0)
(-0.0175216 0.000360192 0)
(-0.0176706 0.000327993 0)
(-0.0178054 0.000295317 0)
(-0.017926 0.00026221 0)
(-0.0180322 0.000228714 0)
(-0.0181238 0.000194872 0)
(-0.0182007 0.000160729 0)
(-0.0182627 0.000126331 0)
(-0.0183097 9.17237e-05 0)
(-0.0183417 5.6953e-05 0)
(-0.0183587 2.20646e-05 0)
(-0.0183604 -1.28973e-05 0)
(-0.0183471 -4.78867e-05 0)
(-0.0183185 -8.28551e-05 0)
(-0.0182749 -0.000117754 0)
(-0.0182161 -0.000152539 0)
(-0.0181423 -0.000187161 0)
(-0.0180535 -0.000221573 0)
(-0.0179499 -0.000255729 0)
(-0.0178316 -0.000289579 0)
(-0.0176986 -0.000323075 0)
(-0.0175513 -0.000356167 0)
(-0.0173897 -0.000388806 0)
(-0.017214 -0.000420943 0)
(-0.0170246 -0.000452528 0)
(-0.0168216 -0.000483512 0)
(-0.0166053 -0.000513846 0)
(-0.0163761 -0.000543478 0)
(-0.0161342 -0.000572356 0)
(-0.01588 -0.000600431 0)
(-0.0156138 -0.000627653 0)
(-0.015336 -0.000653976 0)
(-0.015047 -0.000679349 0)
(-0.0147473 -0.000703724 0)
(-0.0144372 -0.000727051 0)
(-0.0141173 -0.000749281 0)
(-0.0137881 -0.000770366 0)
(-0.0134499 -0.000790258 0)
(-0.0131035 -0.000808912 0)
(-0.0127492 -0.000826281 0)
(-0.0123878 -0.000842319 0)
(-0.0120197 -0.00085698 0)
(-0.0116456 -0.000870221 0)
(-0.0112661 -0.000881997 0)
(-0.0108818 -0.000892264 0)
(-0.0104935 -0.000900983 0)
(-0.0101017 -0.000908114 0)
(-0.00970715 -0.000913618 0)
(-0.00931059 -0.000917459 0)
(-0.00891272 -0.000919602 0)
(-0.00851428 -0.000920012 0)
(-0.00811601 -0.000918657 0)
(-0.00771867 -0.00091551 0)
(-0.00732302 -0.000910544 0)
(-0.00692986 -0.000903738 0)
(-0.00653995 -0.000895071 0)
(-0.0061541 -0.000884526 0)
(-0.00577311 -0.00087209 0)
(-0.00539777 -0.000857752 0)
(-0.0050289 -0.000841503 0)
(-0.0046673 -0.000823341 0)
(-0.00431378 -0.000803266 0)
(-0.00396913 -0.000781285 0)
(-0.00363416 -0.000757412 0)
(-0.00330963 -0.000731665 0)
(-0.00299634 -0.00070407 0)
(-0.00269503 -0.000674659 0)
(-0.00240645 -0.000643475 0)
(-0.0021313 -0.000610569 0)
(-0.00187029 -0.000576002 0)
(-0.00162406 -0.000539853 0)
(-0.00139323 -0.000502214 0)
(-0.00117835 -0.000463197 0)
(-0.000979939 -0.000422935 0)
(-0.000798438 -0.00038159 0)
(-0.00063421 -0.000339354 0)
(-0.000487525 -0.000296458 0)
(-0.000358545 -0.00025318 0)
(-0.000247303 -0.000209857 0)
(-0.00015368 -0.000166897 0)
(-7.73793e-05 -0.000124799 0)
(-1.78952e-05 -8.41712e-05 0)
(2.55215e-05 -4.5758e-05 0)
(5.39056e-05 -1.04701e-05 0)
(6.86208e-05 2.05814e-05 0)
(7.14106e-05 4.6051e-05 0)
(6.44521e-05 6.43274e-05 0)
(5.03638e-05 7.3523e-05 0)
(3.2258e-05 7.15055e-05 0)
(1.44648e-05 5.59961e-05 0)
(3.14638e-06 2.46774e-05 0)
(2.14278e-06 -2.46104e-05 0)
(9.7506e-06 -6.13205e-05 0)
(2.02959e-05 -8.17018e-05 0)
(2.87534e-05 -8.18467e-05 0)
(3.09771e-05 -6.49138e-05 0)
(2.35999e-05 -3.46594e-05 0)
(3.83429e-06 5.81489e-06 0)
(-3.06629e-05 5.39635e-05 0)
(-8.17746e-05 0.000107774 0)
(-0.000150959 0.000165609 0)
(-0.000239286 0.00022615 0)
(-0.000347513 0.000288358 0)
(-0.000476119 0.000351374 0)
(-0.000625331 0.000414503 0)
(-0.000795205 0.000477213 0)
(-0.000985598 0.000539021 0)
(-0.00119623 0.000599568 0)
(-0.0014267 0.000658549 0)
(-0.00167653 0.000715708 0)
(-0.00194511 0.000770848 0)
(-0.00223179 0.000823794 0)
(-0.00253588 0.000874418 0)
(-0.0028566 0.000922602 0)
(-0.00319314 0.000968269 0)
(-0.00354468 0.00101134 0)
(-0.00391035 0.00105176 0)
(-0.00428928 0.00108951 0)
(-0.00468057 0.00112454 0)
(-0.0050833 0.00115685 0)
(-0.00549658 0.00118642 0)
(-0.00591947 0.00121327 0)
(-0.00635104 0.00123739 0)
(-0.0067904 0.00125881 0)
(-0.00723661 0.00127754 0)
(-0.00768877 0.00129361 0)
(-0.00814596 0.00130705 0)
(-0.00860729 0.00131789 0)
(-0.00907188 0.00132617 0)
(-0.00953883 0.00133193 0)
(-0.0100073 0.0013352 0)
(-0.0104764 0.00133604 0)
(-0.0109454 0.00133447 0)
(-0.0114133 0.00133056 0)
(-0.0118794 0.00132435 0)
(-0.0123429 0.00131588 0)
(-0.0128031 0.00130522 0)
(-0.0132591 0.0012924 0)
(-0.0137102 0.00127748 0)
(-0.0141557 0.00126052 0)
(-0.0145948 0.00124157 0)
(-0.015027 0.00122069 0)
(-0.0154515 0.00119792 0)
(-0.0158677 0.00117333 0)
(-0.016275 0.00114697 0)
(-0.0166726 0.00111889 0)
(-0.0170602 0.00108916 0)
(-0.0174369 0.00105784 0)
(-0.0178024 0.00102497 0)
(-0.0181561 0.000990619 0)
(-0.0184975 0.000954843 0)
(-0.0188261 0.000917699 0)
(-0.0191413 0.000879244 0)
(-0.0194429 0.000839537 0)
(-0.0197302 0.000798637 0)
(-0.020003 0.000756606 0)
(-0.0202609 0.000713501 0)
(-0.0205034 0.000669383 0)
(-0.0207302 0.000624314 0)
(-0.0209411 0.000578356 0)
(-0.0211356 0.000531569 0)
(-0.0213136 0.000484019 0)
(-0.0214748 0.000435767 0)
(-0.0216189 0.000386877 0)
(-0.0217458 0.000337416 0)
(-0.0218552 0.000287447 0)
(-0.021947 0.000237034 0)
(-0.022021 0.000186245 0)
(-0.0220771 0.000135148 0)
(-0.0221153 8.38089e-05 0)
(-0.0221354 3.2295e-05 0)
(-0.0221374 -1.93261e-05 0)
(-0.0221212 -7.09856e-05 0)
(-0.022087 -0.000122614 0)
(-0.0220346 -0.000174142 0)
(-0.0219642 -0.000225499 0)
(-0.0218759 -0.000276617 0)
(-0.0217696 -0.000327424 0)
(-0.0216456 -0.00037785 0)
(-0.0215039 -0.000427822 0)
(-0.0213448 -0.00047727 0)
(-0.0211685 -0.000526121 0)
(-0.0209752 -0.000574301 0)
(-0.0207651 -0.000621737 0)
(-0.0205385 -0.000668357 0)
(-0.0202957 -0.000714088 0)
(-0.0200371 -0.000758855 0)
(-0.0197629 -0.000802584 0)
(-0.0194736 -0.0008452 0)
(-0.0191696 -0.00088663 0)
(-0.0188513 -0.000926801 0)
(-0.0185191 -0.000965641 0)
(-0.0181736 -0.00100308 0)
(-0.0178152 -0.00103904 0)
(-0.0174445 -0.00107345 0)
(-0.0170621 -0.00110624 0)
(-0.0166684 -0.00113734 0)
(-0.0162642 -0.00116668 0)
(-0.01585 -0.00119419 0)
(-0.0154266 -0.0012198 0)
(-0.0149945 -0.00124344 0)
(-0.0145544 -0.00126506 0)
(-0.0141072 -0.00128458 0)
(-0.0136535 -0.00130194 0)
(-0.0131942 -0.00131709 0)
(-0.0127299 -0.00132995 0)
(-0.0122615 -0.00134047 0)
(-0.0117898 -0.0013486 0)
(-0.0113157 -0.00135429 0)
(-0.0108399 -0.00135748 0)
(-0.0103635 -0.00135812 0)
(-0.00988718 -0.00135618 0)
(-0.00941195 -0.00135161 0)
(-0.00893869 -0.00134437 0)
(-0.00846832 -0.00133444 0)
(-0.00800177 -0.00132178 0)
(-0.00753998 -0.00130638 0)
(-0.0070839 -0.0012882 0)
(-0.00663446 -0.00126724 0)
(-0.00619263 -0.0012435 0)
(-0.00575934 -0.00121696 0)
(-0.00533555 -0.00118763 0)
(-0.00492218 -0.00115553 0)
(-0.00452018 -0.00112068 0)
(-0.00413046 -0.00108311 0)
(-0.00375392 -0.00104285 0)
(-0.00339144 -0.000999973 0)
(-0.00304388 -0.000954529 0)
(-0.00271208 -0.000906603 0)
(-0.00239681 -0.000856294 0)
(-0.00209884 -0.000803721 0)
(-0.00181886 -0.000749026 0)
(-0.00155752 -0.000692378 0)
(-0.00131538 -0.000633979 0)
(-0.00109294 -0.00057407 0)
(-0.000890604 -0.000512937 0)
(-0.000708661 -0.000450921 0)
(-0.000547277 -0.000388429 0)
(-0.000406472 -0.000325949 0)
(-0.000286095 -0.000264063 0)
(-0.000185799 -0.000203476 0)
(-0.000105011 -0.000145032 0)
(-4.28988e-05 -8.97496e-05 0)
(1.66854e-06 -3.88547e-05 0)
(3.01589e-05 6.18275e-06 0)
(4.44235e-05 4.36105e-05 0)
(4.67463e-05 7.13573e-05 0)
(3.98578e-05 8.7009e-05 0)
(2.70016e-05 8.78119e-05 0)
(1.2611e-05 7.0697e-05 0)
(2.84171e-06 3.21253e-05 0)
(1.82935e-06 -2.93934e-05 0)
(7.17231e-06 -6.93871e-05 0)
(1.25129e-05 -8.83257e-05 0)
(1.30482e-05 -8.2977e-05 0)
(4.82199e-06 -5.69737e-05 0)
(-1.54093e-05 -1.45809e-05 0)
(-5.04074e-05 4.06133e-05 0)
(-0.000102479 0.000105612 0)
(-0.0001735 0.000177959 0)
(-0.000264968 0.000255613 0)
(-0.000378001 0.000336948 0)
(-0.000513393 0.000420576 0)
(-0.000671667 0.000505395 0)
(-0.000853076 0.000590499 0)
(-0.00105768 0.000675111 0)
(-0.00128535 0.000758636 0)
(-0.00153579 0.000840548 0)
(-0.00180859 0.000920432 0)
(-0.00210319 0.000997923 0)
(-0.00241897 0.00107275 0)
(-0.00275522 0.00114466 0)
(-0.00311112 0.00121347 0)
(-0.00348587 0.00127902 0)
(-0.00387854 0.00134117 0)
(-0.00428822 0.00139983 0)
(-0.00471394 0.00145491 0)
(-0.0051547 0.00150638 0)
(-0.0056095 0.00155416 0)
(-0.00607732 0.00159825 0)
(-0.00655712 0.00163862 0)
(-0.00704785 0.00167528 0)
(-0.00754846 0.00170823 0)
(-0.00805793 0.00173748 0)
(-0.00857518 0.00176308 0)
(-0.00909919 0.00178503 0)
(-0.00962892 0.00180338 0)
(-0.0101633 0.00181818 0)
(-0.0107014 0.00182947 0)
(-0.0112422 0.00183729 0)
(-0.0117847 0.00184171 0)
(-0.0123278 0.00184278 0)
(-0.0128707 0.00184055 0)
(-0.0134124 0.0018351 0)
(-0.0139519 0.00182649 0)
(-0.0144884 0.00181478 0)
(-0.0150209 0.00180004 0)
(-0.0155487 0.00178233 0)
(-0.0160707 0.00176174 0)
(-0.0165863 0.00173834 0)
(-0.0170945 0.00171219 0)
(-0.0175946 0.00168337 0)
(-0.0180858 0.00165196 0)
(-0.0185673 0.00161804 0)
(-0.0190385 0.00158167 0)
(-0.0194986 0.00154295 0)
(-0.019947 0.00150194 0)
(-0.0203829 0.00145872 0)
(-0.0208058 0.00141337 0)
(-0.021215 0.00136598 0)
(-0.0216099 0.00131663 0)
(-0.02199 0.00126538 0)
(-0.0223547 0.00121233 0)
(-0.0227035 0.00115755 0)
(-0.0230359 0.00110113 0)
(-0.0233515 0.00104314 0)
(-0.0236497 0.000983679 0)
(-0.0239302 0.00092282 0)
(-0.0241925 0.000860651 0)
(-0.0244364 0.000797259 0)
(-0.0246614 0.000732726 0)
(-0.0248672 0.00066714 0)
(-0.0250535 0.000600589 0)
(-0.0252202 0.000533162 0)
(-0.0253668 0.000464947 0)
(-0.0254932 0.000396032 0)
(-0.0255993 0.000326509 0)
(-0.0256848 0.000256468 0)
(-0.0257496 0.000186003 0)
(-0.0257936 0.000115206 0)
(-0.0258167 4.41684e-05 0)
(-0.0258189 -2.70164e-05 0)
(-0.0258001 -9.82521e-05 0)
(-0.0257603 -0.000169443 0)
(-0.0256996 -0.000240495 0)
(-0.025618 -0.000311312 0)
(-0.0255156 -0.000381796 0)