/*--------------------------------*- C++ -*----------------------------------*\
  =========                 |
  \\      /  F ield         | OpenFOAM: The Open Source CFD Toolbox
   \\    /   O peration     | Website:  https://openfoam.org
    \\  /    A nd           | Version:  7
     \\/     M anipulation  |
\*---------------------------------------------------------------------------*/
FoamFile
{
    version     2.0;
    format      ascii;
    class       volScalarField;
    location    "0.125";
    object      p;
}
// * * * * * * * * * * * * * * * * * * * * * * * * * * * * * * * * * * * * * //

dimensions      [0 2 -2 0 0 0 0];

internalField   nonuniform List<scalar> 
25600
(
2.17625e-07
0.000337643
0.000695262
0.00088341
0.000852868
0.00063714
0.000260515
-0.0002537
-0.000883985
-0.00161071
-0.00241671
-0.00328677
-0.00420708
-0.00516457
-0.00614781
-0.00714662
-0.00815135
-0.00915355
-0.0101455
-0.0111198
-0.0120701
-0.0129903
-0.0138752
-0.0147197
-0.0155195
-0.0162708
-0.01697
-0.0176135
-0.0181984
-0.0187221
-0.0191823
-0.0195768
-0.019904
-0.0201621
-0.0203499
-0.020466
-0.0205097
-0.0204803
-0.0203775
-0.0202007
-0.0199498
-0.019625
-0.0192264
-0.0187544
-0.0182092
-0.0175914
-0.0169017
-0.0161409
-0.0153098
-0.0144096
-0.0134415
-0.0124066
-0.0113065
-0.0101424
-0.00891576
-0.00762816
-0.00628129
-0.0048769
-0.00341685
-0.00190293
-0.000337044
0.00127869
0.00294207
0.00465092
0.00640317
0.00819665
0.0100291
0.011898
0.0138012
0.0157362
0.0177005
0.0196917
0.0217074
0.0237447
0.0258012
0.027874
0.0299604
0.0320579
0.0341639
0.0362754
0.0383897
0.0405037
0.0426147
0.0447203
0.0468176
0.0489037
0.0509758
0.053031
0.0550665
0.0570798
0.0590681
0.0610287
0.0629588
0.0648556
0.0667165
0.0685389
0.0703202
0.0720579
0.0737493
0.0753922
0.076984
0.0785225
0.0800054
0.0814305
0.0827958
0.0840991
0.0853387
0.0865128
0.0876195
0.0886572
0.0896242
0.0905191
0.0913405
0.0920874
0.092759
0.0933545
0.0938731
0.0943141
0.0946772
0.094962
0.0951684
0.0952965
0.0953469
0.0953201
0.0952167
0.0950376
0.0947839
0.0944569
0.094058
0.0935893
0.0930529
0.0924514
0.0917876
0.0910642
0.0902847
0.0894526
0.0885717
0.0876464
0.0866815
0.0856822
0.0846544
0.083604
0.0825379
0.0814632
0.0803877
0.0793198
0.0782685
0.0772436
0.0762556
0.075316
0.0744372
0.0736323
0.0729151
0.0722999
0.0718011
0.0714315
0.0712005
0.0711101
0.0711499
0.0712655
0.000120883
0.000433856
0.000690651
0.000802571
0.000755022
0.000557397
0.000222981
-0.000232389
-0.000792261
-0.00144104
-0.00216408
-0.00294824
-0.00378089
-0.00465068
-0.00554702
-0.00646002
-0.00738102
-0.00830179
-0.00921479
-0.0101132
-0.0109908
-0.0118418
-0.0126608
-0.0134431
-0.0141843
-0.0148804
-0.015528
-0.0161238
-0.0166647
-0.0171483
-0.017572
-0.0179337
-0.0182318
-0.0184646
-0.0186304
-0.0187282
-0.0187571
-0.0187164
-0.0186057
-0.0184245
-0.0181725
-0.0178497
-0.0174563
-0.0169925
-0.0164585
-0.0158548
-0.0151821
-0.0144411
-0.0136326
-0.0127576
-0.0118173
-0.0108129
-0.00974554
-0.00861646
-0.00742714
-0.00617911
-0.00487395
-0.00351337
-0.00209911
-0.000632824
0.000883667
0.00244827
0.0040588
0.00571319
0.00740951
0.00914571
0.0109195
0.0127286
0.0145706
0.0164434
0.0183445
0.0202716
0.0222223
0.0241938
0.0261838
0.0281894
0.0302083
0.0322379
0.0342756
0.0363186
0.0383641
0.0404093
0.0424517
0.0444887
0.0465177
0.0485358
0.0505403
0.0525283
0.0544973
0.0564447
0.058368
0.0602645
0.0621314
0.0639661
0.065766
0.0675288
0.0692519
0.0709327
0.072569
0.0741583
0.0756983
0.077187
0.078622
0.0800013
0.0813228
0.0825848
0.0837854
0.0849229
0.0859957
0.087002
0.0879404
0.0888094
0.0896078
0.0903348
0.0909896
0.0915713
0.0920794
0.0925132
0.0928724
0.0931566
0.0933659
0.0935005
0.093561
0.0935479
0.0934619
0.0933039
0.093075
0.0927765
0.0924099
0.0919774
0.091481
0.0909233
0.090307
0.0896351
0.0889106
0.0881371
0.0873185
0.086459
0.0855632
0.0846363
0.0836838
0.0827117
0.0817264
0.0807348
0.0797443
0.0787627
0.0777985
0.0768608
0.0759593
0.0751043
0.0743068
0.0735781
0.07293
0.072374
0.0719209
0.07158
0.0713566
0.0712508
0.071265
0.0713812
0.000416581
0.000680912
0.000849343
0.000898496
0.000825402
0.000629406
0.000316462
-0.000102922
-0.000616338
-0.00121124
-0.00187527
-0.00259639
-0.00336395
-0.00416746
-0.00499709
-0.0058439
-0.00669955
-0.00755629
-0.00840699
-0.00924501
-0.0100644
-0.0108596
-0.0116255
-0.0123574
-0.013051
-0.0137024
-0.0143079
-0.0148645
-0.0153694
-0.0158199
-0.0162136
-0.0165483
-0.0168224
-0.0170341
-0.0171818
-0.0172644
-0.017281
-0.0172309
-0.0171137
-0.0169286
-0.0166757
-0.0163547
-0.0159657
-0.0155087
-0.014984
-0.0143922
-0.0137338
-0.0130094
-0.0122198
-0.011366
-0.0104491
-0.00947019
-0.00843038
-0.00733084
-0.00617294
-0.00495821
-0.0036882
-0.00236452
-0.000988789
0.000437387
0.00191221
0.00343362
0.00499955
0.00660805
0.00825727
0.00994517
0.0116695
0.013428
0.0152185
0.0170387
0.0188866
0.0207596
0.0226554
0.0245715
0.0265052
0.0284543
0.0304162
0.0323885
0.0343686
0.0363538
0.0383413
0.0403286
0.0423131
0.0442924
0.0462639
0.0482247
0.0501722
0.0521037
0.0540167
0.0559088
0.0577774
0.0596199
0.0614337
0.0632162
0.0649649
0.0666776
0.0683517
0.0699848
0.0715747
0.0731191
0.0746157
0.0760625
0.0774573
0.0787981
0.0800831
0.0813104
0.0824784
0.0835854
0.0846297
0.0856098
0.0865241
0.0873715
0.0881508
0.0888613
0.089502
0.0900724
0.0905717
0.0909995
0.0913554
0.0916391
0.0918508
0.0919909
0.0920597
0.0920578
0.0919862
0.0918457
0.0916372
0.0913622
0.0910223
0.0906194
0.0901559
0.0896342
0.0890568
0.0884268
0.0877472
0.0870214
0.0862533
0.0854469
0.0846069
0.0837381
0.082846
0.0819363
0.0810152
0.0800891
0.0791652
0.0782508
0.0773539
0.0764829
0.0756467
0.0748548
0.074117
0.0734435
0.0728443
0.0723293
0.0719075
0.0715868
0.0713714
0.0712634
0.0712782
0.0714212
0.000810743
0.00102786
0.00113737
0.00113781
0.00103689
0.00083215
0.000525744
0.000125722
-0.000358672
-0.000917231
-0.00153923
-0.00221448
-0.00293307
-0.00368569
-0.0044634
-0.00525786
-0.00606123
-0.00686634
-0.00766637
-0.00845496
-0.00922639
-0.00997531
-0.0106968
-0.0113864
-0.0120399
-0.0126534
-0.0132234
-0.0137469
-0.0142211
-0.0146433
-0.0150112
-0.0153228
-0.0155762
-0.0157697
-0.0159018
-0.0159714
-0.0159775
-0.0159193
-0.0157964
-0.0156081
-0.0153543
-0.0150349
-0.0146497
-0.0141988
-0.0136824
-0.013101
-0.0124552
-0.0117455
-0.0109726
-0.0101374
-0.00924109
-0.00828471
-0.00726914
-0.0061956
-0.00506549
-0.00388025
-0.00264132
-0.0013502
-8.44956e-06
0.0013823
0.00282025
0.00430343
0.00582991
0.00739787
0.00900549
0.0106507
0.0123313
0.014045
0.0157899
0.0175638
0.0193646
0.0211898
0.023037
0.0249039
0.026788
0.0286871
0.0305987
0.0325203
0.0344495
0.0363835
0.0383198
0.0402559
0.0421893
0.0441177
0.0460383
0.0479487
0.049846
0.0517277
0.0535913
0.0554345
0.0572549
0.0590499
0.0608169
0.0625534
0.0642571
0.0659256
0.0675566
0.0691478
0.070697
0.0722019
0.0736604
0.0750704
0.0764299
0.0777369
0.0789898
0.0801867
0.0813261
0.0824064
0.0834258
0.0843828
0.0852762
0.0861047
0.0868673
0.0875633
0.0881918
0.0887522
0.0892439
0.0896664
0.0900194
0.0903027
0.0905165
0.0906611
0.090737
0.090745
0.0906857
0.09056
0.0903691
0.0901142
0.0897971
0.0894197
0.0889841
0.088493
0.0879487
0.0873542
0.0867124
0.0860268
0.085301
0.0845391
0.0837455
0.082925
0.0820828
0.0812244
0.0803557
0.0794829
0.0786126
0.0777518
0.0769079
0.0760888
0.0753027
0.0745585
0.073865
0.0732313
0.0726664
0.0721793
0.071778
0.0714701
0.0712602
0.0711527
0.0711708
0.0713305
0.00127415
0.00145517
0.00152081
0.00148201
0.00135397
0.00113541
0.000828194
0.00043812
-2.69824e-05
-0.000558784
-0.00114841
-0.00178671
-0.002465
-0.0031749
-0.00390823
-0.00465735
-0.00541503
-0.00617448
-0.00692934
-0.00767369
-0.00840199
-0.00910904
-0.00979013
-0.010441
-0.0110577
-0.0116363
-0.0121735
-0.0126664
-0.013112
-0.013508
-0.0138519
-0.0141419
-0.014376
-0.0145524
-0.0146699
-0.0147272
-0.0147235
-0.0146579
-0.0145297
-0.0143384
-0.014084
-0.0137662
-0.0133847
-0.0129396
-0.0124312
-0.0118599
-0.0112262
-0.0105305
-0.00977358
-0.00895642
-0.00808
-0.00714517
-0.00615287
-0.00510432
-0.00400094
-0.00284409
-0.00163505
-0.000375232
0.00093382
0.00229045
0.00369289
0.00513929
0.00662785
0.00815682
0.0097244
0.0113285
0.0129669
0.0146376
0.0163387
0.018068
0.0198234
0.0216025
0.023403
0.0252226
0.027059
0.0289099
0.0307731
0.0326459
0.034526
0.0364109
0.0382979
0.0401848
0.0420691
0.0439485
0.0458204
0.0476822
0.0495312
0.051365
0.0531813
0.0549776
0.0567517
0.0585012
0.0602233
0.0619157
0.0635761
0.0652023
0.066792
0.068343
0.0698532
0.0713203
0.0727423
0.0741171
0.0754428
0.0767177
0.0779399
0.0791079
0.0802199
0.0812745
0.0822701
0.0832051
0.0840784
0.0848889
0.0856357
0.0863178
0.0869347
0.0874856
0.0879699
0.0883873
0.0887374
0.0890202
0.0892358
0.0893847
0.0894673
0.0894843
0.0894364
0.0893247
0.0891501
0.088914
0.0886182
0.0882644
0.087855
0.0873921
0.0868784
0.0863167
0.0857097
0.0850609
0.0843739
0.0836527
0.0829014
0.0821247
0.0813275
0.0805152
0.0796933
0.0788678
0.0780448
0.0772308
0.0764329
0.0756582
0.0749145
0.0742098
0.0735522
0.0729501
0.0724116
0.0719447
0.071557
0.0712558
0.0710461
0.0709338
0.0709449
0.0710987
0.00183533
0.00197153
0.00199507
0.00192
0.00176407
0.001528
0.00121366
0.000826066
0.00037181
-0.000141995
-0.000707721
-0.00131752
-0.00196366
-0.00263847
-0.00333475
-0.00404547
-0.00476389
-0.0054837
-0.00619896
-0.00690419
-0.0075941
-0.00826374
-0.00890863
-0.00952464
-0.0101079
-0.0106547
-0.011162
-0.0116268
-0.0120463
-0.012418
-0.01274
-0.01301
-0.0132262
-0.0133869
-0.0134909
-0.013537
-0.0135241
-0.0134515
-0.0133186
-0.0131248
-0.0128699
-0.0125535
-0.0121756
-0.0117363
-0.0112357
-0.010674
-0.0100518
-0.00936957
-0.00862805
-0.00782811
-0.00697064
-0.00605643
-0.00508639
-0.00406178
-0.00298397
-0.00185422
-0.000673713
0.000556193
0.00183394
0.00315789
0.00452634
0.00593759
0.00738994
0.00888164
0.0104109
0.0119756
0.0135737
0.0152033
0.0168624
0.0185491
0.0202611
0.021996
0.0237518
0.0255261
0.0273169
0.0291218
0.0309386
0.0327647
0.034598
0.0364358
0.0382758
0.0401156
0.041953
0.0437855
0.0456108
0.0474263
0.0492292
0.0510173
0.0527883
0.0545399
0.0562699
0.0579759
0.0596552
0.0613055
0.0629247
0.0645105
0.0660609
0.0675738
0.0690468
0.070478
0.0718652
0.0732066
0.0745003
0.0757445
0.0769377
0.0780782
0.0791643
0.0801945
0.0811673
0.0820815
0.0829358
0.0837292
0.0844608
0.0851298
0.0857355
0.0862773
0.0867545
0.0871669
0.0875142
0.0877964
0.0880136
0.0881663
0.088255
0.0882804
0.0882431
0.0881442
0.0879848
0.0877661
0.0874898
0.0871579
0.0867723
0.0863355
0.0858497
0.0853178
0.0847426
0.0841272
0.0834753
0.0827907
0.0820774
0.0813399
0.0805829
0.0798115
0.0790309
0.0782467
0.0774647
0.0766911
0.0759322
0.0751948
0.074486
0.0738132
0.0731839
0.0726056
0.0720858
0.0716318
0.0712506
0.0709493
0.0707333
0.0706088
0.0706009
0.0707277
0.0024976
0.00257817
0.00255643
0.00244435
0.00225801
0.00200027
0.00167327
0.00128151
0.000830725
0.000327174
-0.000222633
-0.000811874
-0.00143345
-0.00208069
-0.00274707
-0.0034261
-0.00411166
-0.00479794
-0.00547936
-0.00615073
-0.00680711
-0.00744387
-0.00805683
-0.00864191
-0.00919532
-0.0097138
-0.0101943
-0.0106337
-0.0110295
-0.0113794
-0.0116813
-0.0119331
-0.012133
-0.0122795
-0.0123712
-0.012407
-0.0123859
-0.012307
-0.0121698
-0.0119738
-0.0117186
-0.0114039
-0.0110295
-0.0105957
-0.0101025
-0.00955005
-0.00893884
-0.00826945
-0.00754257
-0.00675895
-0.00591941
-0.00502473
-0.00407585
-0.003074
-0.00202046
-0.000916391
0.000237093
0.00143864
0.00268665
0.00397954
0.00531576
0.0066937
0.00811171
0.00956802
0.0110608
0.0125882
0.0141481
0.0157386
0.0173579
0.0190041
0.0206748
0.0223679
0.0240813
0.0258127
0.0275602
0.0293214
0.0310942
0.0328761
0.0346648
0.036458
0.0382534
0.0400486
0.0418415
0.0436298
0.0454109
0.0471824
0.0489416
0.0506864
0.0524145
0.0541239
0.0558122
0.0574769
0.0591157
0.0607263
0.0623065
0.0638543
0.0653676
0.0668444
0.0682824
0.0696797
0.0710341
0.072344
0.0736075
0.074823
0.0759888
0.0771034
0.078165
0.0791722
0.0801237
0.0810182
0.0818545
0.0826319
0.0833492
0.0840058
0.0846009
0.0851339
0.0856044
0.086012
0.0863565
0.0866379
0.0868565
0.0870126
0.0871068
0.0871397
0.0871121
0.0870249
0.0868792
0.0866763
0.0864178
0.0861057
0.0857418
0.0853284
0.0848678
0.0843627
0.0838159
0.0832304
0.0826098
0.0819577
0.081278
0.0805749
0.0798531
0.0791172
0.0783723
0.0776235
0.0768762
0.0761363
0.0754096
0.0747025
0.0740214
0.0733732
0.0727647
0.0722028
0.0716943
0.0712459
0.0708643
0.0705559
0.0703263
0.0701818
0.0701438
0.0702268
0.00325557
0.00327061
0.00319839
0.00304659
0.0028269
0.00254325
0.00219848
0.00179676
0.00134312
0.000842987
0.000302117
-0.000273358
-0.00087734
-0.00150382
-0.00214672
-0.00280026
-0.0034589
-0.00411722
-0.00477012
-0.00541263
-0.00604014
-0.0066484
-0.00723338
-0.00779121
-0.00831835
-0.00881162
-0.00926809
-0.00968488
-0.0100595
-0.0103898
-0.0106736
-0.010909
-0.0110942
-0.0112278
-0.0113085
-0.0113351
-0.0113064
-0.011222
-0.011081
-0.0108832
-0.0106279
-0.0103148
-0.00994408
-0.00951559
-0.00902941
-0.00848575
-0.00788507
-0.00722795
-0.006515
-0.00574687
-0.00492432
-0.00404816
-0.00311935
-0.0021391
-0.00110857
-2.88133e-05
0.00109907
0.0022737
0.0034935
0.00475695
0.00606263
0.00740901
0.00879443
0.0102172
0.0116754
0.0131673
0.0146909
0.0162445
0.0178261
0.0194338
0.0210654
0.0227188
0.0243919
0.0260827
0.0277891
0.029509
0.0312401
0.0329801
0.0347266
0.0364775
0.0382306
0.0399837
0.0417345
0.0434808
0.0452201
0.0469498
0.0486677
0.0503715
0.0520592
0.0537286
0.0553774
0.0570033
0.0586038
0.0601767
0.0617202
0.0632321
0.0647105
0.0661533
0.0675583
0.0689236
0.0702472
0.0715274
0.0727626
0.073951
0.0750911
0.0761812
0.0772198
0.0782053
0.0791367
0.0800126
0.0808322
0.0815943
0.0822982
0.082943
0.083528
0.0840527
0.0845167
0.0849197
0.0852615
0.0855421
0.0857617
0.0859208
0.0860199
0.0860596
0.0860406
0.085964
0.0858307
0.0856421
0.0853997
0.0851053
0.0847609
0.0843685
0.0839304
0.0834492
0.0829276
0.0823687
0.0817757
0.0811522
0.0805019
0.0798288
0.0791374
0.0784321
0.0777175
0.0769985
0.0762802
0.0755679
0.0748671
0.0741837
0.0735238
0.0728934
0.0722989
0.0717466
0.0712427
0.0707933
0.0704045
0.0700823
0.0698322
0.0696603
0.0695825
0.0696085
0.0041005
0.00404181
0.00391367
0.00371847
0.00346203
0.00314849
0.00278142
0.00236464
0.00190246
0.0013998
0.00086188
0.000293956
-0.000298605
-0.000910237
-0.00153556
-0.00216935
-0.00280644
-0.00344199
-0.00407122
-0.00468946
-0.0052925
-0.00587639
-0.00643716
-0.00697123
-0.0074754
-0.00794655
-0.00838179
-0.0087785
-0.00913438
-0.0094472
-0.00971483
-0.00993548
-0.0101076
-0.0102296
-0.0103004
-0.0103186
-0.0102834
-0.0101941
-0.01005
-0.00985049
-0.0095953
-0.00928416
-0.00891696
-0.00849366
-0.00801425
-0.007479
-0.0068884
-0.00624298
-0.00554325
-0.00478978
-0.00398335
-0.00312479
-0.00221506
-0.00125527
-0.000246499
0.000810248
0.00191387
0.00306297
0.00425602
0.0054916
0.00676837
0.00808484
0.00943939
0.0108303
0.0122558
0.0137141
0.0152033
0.0167217
0.0182676
0.0198389
0.0214335
0.0230492
0.0246842
0.0263365
0.0280041
0.0296849
0.0313765
0.0330767
0.0347833
0.0364942
0.0382073
0.0399205
0.0416315
0.0433381
0.0450377
0.0467281
0.0484069
0.0500721
0.0517216
0.0533532
0.0549647
0.0565538
0.0581182
0.0596558
0.0611646
0.0626427
0.0640882
0.065499
0.0668729
0.0682081
0.0695027
0.070755
0.0719635
0.0731265
0.0742423
0.0753095
0.0763263
0.0772915
0.078204
0.0790625
0.0798662
0.0806141
0.0813052
0.0819389
0.0825144
0.0830312
0.0834891
0.0838875
0.0842266
0.0845062
0.0847266
0.0848883
0.0849916
0.0850374
0.0850261
0.0849589
0.0848367
0.0846608
0.0844327
0.0841542
0.0838271
0.0834534
0.0830353
0.0825753
0.082076
0.0815404
0.0809716
0.080373
0.0797482
0.0791009
0.0784354
0.0777559
0.0770666
0.0763723
0.0756776
0.0749873
0.0743067
0.0736412
0.0729963
0.0723776
0.071791
0.0712421
0.0707366
0.0702801
0.069878
0.0695359
0.0692589
0.0690528
0.0689273
0.0688867
0.00502206
0.00488343
0.00469452
0.00445201
0.00415523
0.00380814
0.00341465
0.00297817
0.00250253
0.00199226
0.00145185
0.000885904
0.000299381
-0.000302817
-0.000915888
-0.00153506
-0.00215571
-0.00277324
-0.00338323
-0.00398156
-0.00456428
-0.00512753
-0.00566768
-0.00618148
-0.00666581
-0.0071177
-0.00753443
-0.00791354
-0.00825283
-0.00855018
-0.00880357
-0.00901127
-0.00917175
-0.00928358
-0.0093455
-0.00935641
-0.00931543
-0.00922187
-0.00907504
-0.00887437
-0.00861957
-0.00831042
-0.00794675
-0.00752846
-0.00705559
-0.00652845
-0.00594752
-0.00531323
-0.00462601
-0.00388644
-0.0030953
-0.00225345
-0.00136179
-0.000421359
0.000566841
0.00160183
0.00268248
0.0038074
0.00497513
0.00618435
0.00743378
0.00872198
0.0100473
0.0114081
0.0128025
0.014229
0.0156857
0.017171
0.018683
0.0202197
0.0217792
0.0233594
0.0249583
0.0265743
0.0282052
0.029849
0.0315032
0.0331659
0.0348348
0.036508
0.0381834
0.0398589
0.0415324
0.0432014
0.0448636
0.0465168
0.0481588
0.0497875
0.051401
0.052997
0.0545734
0.0561279
0.0576583
0.0591626
0.0606388
0.0620852
0.0634997
0.0648804
0.0662251
0.067532
0.0687993
0.0700254
0.0712089
0.0723479
0.073441
0.0744866
0.075483
0.0764292
0.0773239
0.0781662
0.078955
0.0796895
0.0803686
0.0809918
0.0815583
0.0820677
0.0825196
0.0829137
0.0832501
0.0835286
0.0837495
0.0839133
0.0840203
0.0840713
0.0840668
0.0840079
0.0838954
0.0837308
0.0835154
0.0832508
0.082939
0.0825817
0.0821811
0.0817397
0.0812599
0.0807446
0.0801967
0.0796196
0.0790165
0.0783911
0.0777473
0.0770891
0.0764206
0.075746
0.0750698
0.0743965
0.0737307
0.0730776
0.0724422
0.0718297
0.0712453
0.0706942
0.0701815
0.0697122
0.0692914
0.0689238
0.0686145
0.0683686
0.0681892
0.0680748
0.00600905
0.00578626
0.00553271
0.00523955
0.00489894
0.00451486
0.00409116
0.00363087
0.00313756
0.00261504
0.00206727
0.0014985
0.000913105
0.000315444
-0.000290188
-0.000899476
-0.00150819
-0.00211206
-0.00270708
-0.00328954
-0.0038557
-0.00440189
-0.00492483
-0.00542154
-0.00588903
-0.00632443
-0.00672523
-0.00708913
-0.007414
-0.00769784
-0.00793879
-0.00813517
-0.0082855
-0.00838839
-0.00844261
-0.00844716
-0.0084012
-0.00830403
-0.00815498
-0.00795354
-0.00769942
-0.00739236
-0.00703216
-0.00661874
-0.00615224
-0.00563291
-0.0050612
-0.00443748
-0.00376212
-0.00303572
-0.00225908
-0.00143306
-0.000558521
0.000363637
0.00133244
0.00234688
0.00340579
0.00450783
0.00565163
0.00683599
0.00805963
0.00932113
0.0106188
0.0119511
0.0133162
0.0147126
0.0161386
0.0175925
0.0190726
0.0205767
0.022103
0.0236496
0.0252146
0.0267962
0.0283926
0.0300014
0.0316204
0.0332476
0.034881
0.0365187
0.0381586
0.0397987
0.0414366
0.0430702
0.0446972
0.0463154
0.0479228
0.0495173
0.0510969
0.0526595
0.0542028
0.0557248
0.0572233
0.0586963
0.060142
0.0615586
0.062944
0.0642964
0.0656137
0.066894
0.0681357
0.0693374
0.0704973
0.071614
0.0726857
0.073711
0.0746883
0.0756166
0.0764948
0.0773219
0.0780968
0.0788187
0.0794866
0.0800999
0.080658
0.0811603
0.0816066
0.0819966
0.0823302
0.0826075
0.0828287
0.0829941
0.0831042
0.0831596
0.083161
0.0831092
0.0830052
0.0828504
0.082646
0.0823937
0.0820951
0.0817521
0.0813668
0.0809414
0.0804785
0.0799806
0.0794506
0.0788915
0.0783067
0.0776994
0.0770734
0.0764325
0.0757803
0.075121
0.0744586
0.0737973
0.0731416
0.0724959
0.0718649
0.0712535
0.0706662
0.0701078
0.0695829
0.069096
0.0686515
0.0682536
0.0679071
0.0676168
0.0673788
0.0671856
0.00705026
0.00674068
0.00642
0.00607331
0.00568592
0.00526164
0.00480431
0.00431676
0.00380182
0.00326289
0.00270365
0.00212777
0.00153908
0.000941532
0.000338973
-0.000264704
-0.000865555
-0.00145978
-0.00204383
-0.00261414
-0.00316717
-0.00369968
-0.00420868
-0.00469129
-0.00514468
-0.00556623
-0.00595357
-0.00630456
-0.00661713
-0.00688939
-0.00711959
-0.00730619
-0.00744776
-0.00754295
-0.00759059
-0.00758972
-0.00753956
-0.0074394
-0.00728864
-0.00708681
-0.00683361
-0.00652873
-0.00617199
-0.00576338
-0.00530304
-0.00479123
-0.0042283
-0.00361459
-0.00295046
-0.00223655
-0.00147368
-0.000662661
0.000195751
0.0011007
0.00205121
0.00304622
0.00408458
0.00516504
0.00628631
0.00744726
0.00864661
0.0098829
0.0111545
0.0124598
0.0137973
0.0151654
0.0165626
0.0179869
0.0194367
0.0209101
0.0224051
0.0239201
0.0254531
0.0270025
0.0285662
0.0301421
0.0317279
0.0333218
0.0349218
0.0365262
0.0381328
0.0397395
0.041344
0.0429443
0.0445382
0.0461236
0.0476985
0.0492608
0.0508087
0.0523398
0.0538522
0.0553437
0.0568123
0.058256
0.0596732
0.0610618
0.06242
0.0637459
0.0650375
0.066293
0.0675108
0.0686895
0.0698275
0.0709231
0.0719749
0.0729812
0.0739407
0.0748524
0.0757151
0.076528
0.07729
0.0780001
0.0786575
0.0792616
0.0798117
0.0803073
0.0807483
0.0811343
0.0814652
0.0817412
0.0819623
0.082129
0.0822416
0.0823007
0.082307
0.0822613
0.0821647
0.0820182
0.0818233
0.0815814
0.0812942
0.0809635
0.0805913
0.0801797
0.0797311
0.0792479
0.0787329
0.0781888
0.0776188
0.0770262
0.0764143
0.0757867
0.0751469
0.0744987
0.0738458
0.0731922
0.0725419
0.071899
0.0712679
0.0706529
0.0700582
0.0694879
0.0689463
0.0684372
0.0679647
0.0675324
0.0671448
0.0668064
0.0665061
0.0662309
0.00813554
0.00773778
0.00734805
0.00694564
0.00650898
0.00604177
0.00554796
0.00502984
0.00448986
0.00393102
0.00335653
0.00276968
0.0021738
0.00157239
0.000968977
0.00036713
-0.000229655
-0.00081801
-0.00139464
-0.00195616
-0.00249939
-0.00302144
-0.00351953
-0.00399083
-0.00443272
-0.00484284
-0.00521906
-0.00555931
-0.00586159
-0.0061241
-0.00634524
-0.00652357
-0.00665771
-0.00674636
-0.00678845
-0.00678308
-0.00672947
-0.00662696
-0.006475
-0.00627316
-0.00602107
-0.00571846
-0.00536521
-0.00496134
-0.004507
-0.00400238
-0.0034478
-0.00284356
-0.00219008
-0.00148803
-0.000738207
5.86736e-05
0.000901924
0.00179068
0.00272392
0.00370059
0.00471958
0.00577975
0.00687987
0.00801881
0.0091953
0.0104079
0.0116549
0.0129349
0.0142464
0.015588
0.0169579
0.0183544
0.0197758
0.0212202
0.0226859
0.0241712
0.0256742
0.0271933
0.0287263
0.0302712
0.0318259
0.0333885
0.0349573
0.0365304
0.0381057
0.039681
0.0412542
0.0428233
0.0443862
0.0459409
0.0474854
0.0490176
0.0505357
0.0520374
0.0535209
0.0549839
0.0564246
0.057841
0.0592314
0.060594
0.0619268
0.0632279
0.0644955
0.0657278
0.0669233
0.0680806
0.0691981
0.0702742
0.0713073
0.0722959
0.0732389
0.0741351
0.0749835
0.0757831
0.076533
0.0772322
0.0778798
0.0784752
0.0790178
0.0795072
0.0799431
0.0803252
0.0806535
0.080928
0.0811488
0.0813163
0.0814309
0.081493
0.0815034
0.0814629
0.0813724
0.081233
0.0810461
0.0808131
0.0805355
0.0802152
0.079854
0.0794539
0.0790172
0.0785461
0.0780432
0.0775112
0.076953
0.0763717
0.0757705
0.0751527
0.0745216
0.0738806
0.0732333
0.0725833
0.0719343
0.0712901
0.0706547
0.0700319
0.0694255
0.0688392
0.0682769
0.0677419
0.0672377
0.0667674
0.0663354
0.0659459
0.0655809
0.0652215
0.00925578
0.00876891
0.00830884
0.00784916
0.00736127
0.00684888
0.00631602
0.00576456
0.0051966
0.00461469
0.00402163
0.00342035
0.00281377
0.00220497
0.00159721
0.000993708
0.000397462
-0.000188455
-0.000760834
-0.00131666
-0.00185319
-0.00236778
-0.00285773
-0.00332032
-0.0037532
-0.0041543
-0.0045216
-0.0048531
-0.00514692
-0.00540143
-0.00561515
-0.00578665
-0.00591462
-0.00599786
-0.00603541
-0.0060264
-0.00597007
-0.00586584
-0.00571318
-0.00551164
-0.00526087
-0.00496066
-0.00461095
-0.00421176
-0.00376319
-0.00326544
-0.00271877
-0.00212354
-0.0014802
-0.000789384
-5.1854e-05
0.000731744
0.00156075
0.00243426
0.00335123
0.00431064
0.00531146
0.00635261
0.00743291
0.00855121
0.00970621
0.0108965
0.0121205
0.0133768
0.014664
0.0159806
0.0173249
0.0186953
0.02009
0.0215073
0.0229456
0.0244031
0.025878
0.0273686
0.0288728
0.0303887
0.0319143
0.0334478
0.0349874
0.0365312
0.0380772
0.0396232
0.0411671
0.042707
0.0442409
0.0457669
0.047283
0.0487871
0.0502774
0.0517517
0.0532082
0.0546447
0.0560593
0.0574503
0.0588159
0.0601541
0.0614632
0.0627413
0.0639866
0.0651974
0.0663723
0.0675097
0.0686081
0.069666
0.0706818
0.071654
0.0725816
0.0734635
0.0742986
0.075086
0.0758246
0.0765135
0.077152
0.0777393
0.0782749
0.0787584
0.0791895
0.0795679
0.0798935
0.0801664
0.0803867
0.0805547
0.0806707
0.0807353
0.080749
0.0807127
0.0806272
0.0804938
0.0803135
0.0800878
0.0798182
0.0795064
0.0791542
0.0787635
0.0783363
0.0778749
0.0773816
0.0768589
0.0763096
0.0757366
0.0751429
0.0745315
0.0739056
0.0732684
0.072623
0.0719729
0.0713214
0.0706722
0.0700286
0.0693942
0.0687724
0.0681665
0.0675799
0.0670156
0.0664766
0.0659655
0.0654865
0.0650436
0.064612
0.0641673
0.0104024
0.00982616
0.00929504
0.00877683
0.0082362
0.00767682
0.00710274
0.00651559
0.00591707
0.00530933
0.00469478
0.00407597
0.00345554
0.00283628
0.00222105
0.00161262
0.00101371
0.000427239
-0.00014385
-0.000696994
-0.00122974
-0.00173953
-0.00222378
-0.00268009
-0.0031064
-0.00350075
-0.00386116
-0.00418576
-0.0044729
-0.00472108
-0.00492889
-0.00509491
-0.00521792
-0.00529685
-0.00533081
-0.00531898
-0.00526067
-0.0051553
-0.00500235
-0.00480142
-0.00455221
-0.00425456
-0.00390842
-0.0035138
-0.0030708
-0.00257959
-0.00204047
-0.00145381
-0.000820072
-0.000139871
0.000586122
0.00135727
0.00217289
0.00303206
0.00393373
0.00487697
0.00586081
0.00688419
0.00794595
0.00904491
0.0101798
0.0113492
0.0125517
0.0137858
0.0150503
0.0163436
0.017664
0.0190099
0.0203797
0.0217717
0.0231843
0.0246158
0.0260645
0.0275285
0.0290059
0.0304948
0.0319933
0.0334996
0.0350119
0.0365284
0.038047
0.0395656
0.0410822
0.042595
0.0441019
0.0456012
0.0470909
0.0485688
0.0500332
0.0514821
0.0529134
0.0543253
0.0557158
0.0570832
0.0584256
0.0597414
0.0610285
0.0622853
0.06351
0.0647009
0.0658566
0.0669756
0.0680564
0.0690974
0.0700972
0.0710544
0.0719678
0.0728364
0.0736592
0.0744352
0.0751634
0.0758428
0.0764728
0.0770526
0.0775817
0.0780596
0.078486
0.0788608
0.0791838
0.0794551
0.0796747
0.0798428
0.0799598
0.0800262
0.0800426
0.0800097
0.0799283
0.0797996
0.0796247
0.0794049
0.0791417
0.0788367
0.0784916
0.0781083
0.0776885
0.0772343
0.0767481
0.0762321
0.075689
0.0751214
0.0745322
0.0739243
0.0733005
0.0726637
0.072017
0.0713634
0.0707061
0.0700483
0.0693931
0.0687437
0.0681031
0.0674744
0.0668604
0.0662639
0.0656874
0.065133
0.0646049
0.064107
0.0636078
0.0630772
0.0115677
0.0109023
0.0102997
0.00972217
0.00912762
0.00851975
0.00790272
0.00727784
0.00664651
0.00601053
0.00537188
0.00473283
0.00409584
0.00346331
0.00283766
0.00222137
0.00161706
0.00102736
0.000454713
-9.86046e-05
-0.000630189
-0.00113755
-0.00161843
-0.0020708
-0.00249278
-0.00288244
-0.00323784
-0.00355731
-0.00383945
-0.00408288
-0.00428615
-0.00444794
-0.00456714
-0.00464282
-0.00467412
-0.00466028
-0.00460064
-0.00449465
-0.00434183
-0.00414183
-0.00389442
-0.00359946
-0.00325688
-0.00286672
-0.00242907
-0.00194412
-0.0014122
-0.000833688
-0.000209033
0.000461205
0.00117639
0.00193587
0.00273893
0.00358464
0.00447202
0.00540016
0.00636816
0.00737497
0.00841942
0.00950033
0.0106164
0.0117664
0.0129488
0.0141624
0.0154057
0.0166772
0.0179753
0.0192984
0.020645
0.0220135
0.0234022
0.0248096
0.0262337
0.027673
0.0291254
0.0305892
0.0320625
0.0335436
0.0350306
0.0365217
0.0380149
0.039508
0.0409993
0.0424868
0.0439689
0.0454434
0.0469084
0.0483622
0.0498026
0.0512278
0.0526359
0.054025
0.0553932
0.0567388
0.0580599
0.0593548
0.0606217
0.0618589
0.0630645
0.0642371
0.0653752
0.0664773
0.0675418
0.0685674
0.0695525
0.0704958
0.0713962
0.0722526
0.0730641
0.0738296
0.0745481
0.0752188
0.0758409
0.0764137
0.0769367
0.0774094
0.0778315
0.0782029
0.0785233
0.0787928
0.0790115
0.0791795
0.0792972
0.0793649
0.0793833
0.079353
0.0792749
0.0791499
0.0789791
0.0787639
0.0785056
0.0782058
0.0778661
0.0774881
0.0770736
0.0766246
0.076143
0.0756313
0.0750918
0.0745271
0.0739397
0.0733324
0.0727077
0.0720684
0.0714173
0.0707572
0.070091
0.0694215
0.0687516
0.0680841
0.0674218
0.0667674
0.0661233
0.0654922
0.0648759
0.0642762
0.0636975
0.0631433
0.0625758
0.0619595
0.0127443
0.0119905
0.0113165
0.0106791
0.0100297
0.00937218
0.00871082
0.00804649
0.00738039
0.00671399
0.00604899
0.00538742
0.00473141
0.00408298
0.00344426
0.00281762
0.00220544
0.00160991
0.00103306
0.000477098
-5.56075e-05
-0.000562784
-0.00104257
-0.00149322
-0.00191288
-0.00229966
-0.00265181
-0.00296792
-0.0032467
-0.00348678
-0.00368676
-0.0038455
-0.00396201
-0.00403542
-0.00406494
-0.00404982
-0.00398945
-0.00388333
-0.00373106
-0.00353233
-0.00328693
-0.00299474
-0.0026557
-0.00226989
-0.0018374
-0.00135844
-0.000833376
-0.000262581
0.000353543
0.00101447
0.00171953
0.00246809
0.00325939
0.00409253
0.00496661
0.00588073
0.006834
0.0078254
0.00885374
0.00991786
0.0110165
0.0121484
0.0133123
0.0145067
0.0157302
0.0169815
0.0182589
0.0195609
0.020886
0.0222327
0.0235993
0.0249842
0.0263857
0.0278019
0.0292313
0.0306718
0.0321219
0.0335796
0.0350432
0.0365108
0.0379804
0.0394501
0.0409179
0.0423822
0.0438412
0.0452928
0.0467352
0.0481666
0.0495849
0.0509884
0.0523751
0.0537432
0.0550909
0.0564164
0.0577179
0.0589937
0.060242
0.0614611
0.0626494
0.0638052
0.0649272
0.0660138
0.0670635
0.068075
0.0690466
0.0699773
0.0708658
0.0717111
0.0725122
0.073268
0.0739778
0.0746405
0.0752553
0.0758217
0.076339
0.0768068
0.0772249
0.077593
0.0779109
0.0781786
0.0783962
0.0785639
0.0786818
0.0787503
0.0787701
0.0787418
0.078666
0.0785438
0.0783762
0.0781643
0.0779095
0.0776134
0.0772773
0.076903
0.0764919
0.0760459
0.0755669
0.0750572
0.074519
0.0739546
0.0733666
0.0727572
0.072129
0.0714845
0.0708262
0.0701568
0.0694788
0.0687947
0.0681073
0.0674191
0.0667325
0.0660498
0.0653735
0.0647055
0.0640476
0.0634011
0.0627704
0.0621593
0.0615233
0.0608217
0.0139257
0.0130843
0.0123392
0.0116418
0.0109369
0.0102289
0.00952204
0.0088169
0.00811431
0.00741564
0.00672241
0.00603626
0.00535895
0.0046923
0.0040383
0.00339908
0.00277663
0.00217277
0.00158942
0.00102874
0.000492853
-1.63657e-05
-0.000497299
-0.000948219
-0.00136729
-0.00175285
-0.00210348
-0.00241787
-0.00269476
-0.00293277
-0.00313068
-0.00328749
-0.00340236
-0.00347445
-0.00350297
-0.00348723
-0.00342668
-0.00332093
-0.00316961
-0.00297245
-0.00272924
-0.00243986
-0.00210435
-0.00172277
-0.00129525
-0.000822039
-0.000303483
0.000260059
0.000868203
0.00152043
0.00221605
0.00295439
0.00373474
0.00455623
0.00541797
0.0063191
0.00725874
0.00823585
0.00924927
0.0102978
0.0113804
0.0124956
0.0136422
0.0148189
0.0160242