/*--------------------------------*- C++ -*----------------------------------*\
  =========                 |
  \\      /  F ield         | OpenFOAM: The Open Source CFD Toolbox
   \\    /   O peration     | Website:  https://openfoam.org
    \\  /    A nd           | Version:  7
     \\/     M anipulation  |
\*---------------------------------------------------------------------------*/
FoamFile
{
    version     2.0;
    format      ascii;
    class       volVectorField;
    location    "0.125";
    object      U;
}
// * * * * * * * * * * * * * * * * * * * * * * * * * * * * * * * * * * * * * //

dimensions      [0 1 -1 0 0 0 0];

internalField   nonuniform List<vector> 
25600
(
(8.8705e-07 6.75036e-07 0)
(2.40292e-06 -7.40376e-07 0)
(8.56121e-06 -2.65163e-06 0)
(1.5983e-05 -3.23895e-06 0)
(2.42079e-05 -3.23808e-06 0)
(3.15512e-05 -2.87437e-06 0)
(3.73637e-05 -2.29198e-06 0)
(4.11865e-05 -1.58198e-06 0)
(4.27248e-05 -8.07806e-07 0)
(4.17889e-05 -5.52283e-10 0)
(3.82767e-05 8.25846e-07 0)
(3.21262e-05 1.64844e-06 0)
(2.33245e-05 2.46508e-06 0)
(1.18986e-05 3.26408e-06 0)
(-2.13138e-06 4.03864e-06 0)
(-1.86984e-05 4.79202e-06 0)
(-3.77343e-05 5.52027e-06 0)
(-5.91719e-05 6.21796e-06 0)
(-8.29137e-05 6.88559e-06 0)
(-0.000108871 7.52469e-06 0)
(-0.000136953 8.13077e-06 0)
(-0.000167054 8.70311e-06 0)
(-0.000199069 9.24439e-06 0)
(-0.000232899 9.75468e-06 0)
(-0.000268435 1.02326e-05 0)
(-0.00030557 1.06796e-05 0)
(-0.000344197 1.1097e-05 0)
(-0.000384211 1.14818e-05 0)
(-0.000425503 1.1833e-05 0)
(-0.000467966 1.21534e-05 0)
(-0.000511495 1.2444e-05 0)
(-0.000555985 1.2705e-05 0)
(-0.000601335 1.29357e-05 0)
(-0.000647438 1.31367e-05 0)
(-0.000694194 1.33094e-05 0)
(-0.000741504 1.34531e-05 0)
(-0.000789268 1.35681e-05 0)
(-0.00083739 1.36557e-05 0)
(-0.000885772 1.37158e-05 0)
(-0.000934322 1.3749e-05 0)
(-0.000982949 1.37563e-05 0)
(-0.00103156 1.37385e-05 0)
(-0.00108008 1.36966e-05 0)
(-0.0011284 1.3632e-05 0)
(-0.00117646 1.35444e-05 0)
(-0.00122417 1.34331e-05 0)
(-0.00127146 1.32991e-05 0)
(-0.00131823 1.31437e-05 0)
(-0.00136442 1.29674e-05 0)
(-0.00140995 1.27705e-05 0)
(-0.00145476 1.25539e-05 0)
(-0.00149876 1.23179e-05 0)
(-0.00154191 1.20631e-05 0)
(-0.00158412 1.17907e-05 0)
(-0.00162534 1.15013e-05 0)
(-0.00166551 1.1195e-05 0)
(-0.00170456 1.08719e-05 0)
(-0.00174245 1.05331e-05 0)
(-0.00177911 1.01798e-05 0)
(-0.00181449 9.81211e-06 0)
(-0.00184855 9.43e-06 0)
(-0.00188123 9.03453e-06 0)
(-0.00191249 8.62681e-06 0)
(-0.00194228 8.20732e-06 0)
(-0.00197057 7.77623e-06 0)
(-0.00199731 7.33422e-06 0)
(-0.00202247 6.88236e-06 0)
(-0.002046 6.42115e-06 0)
(-0.00206789 5.95067e-06 0)
(-0.00208809 5.47139e-06 0)
(-0.00210657 4.98421e-06 0)
(-0.00212332 4.48999e-06 0)
(-0.0021383 3.98919e-06 0)
(-0.0021515 3.48194e-06 0)
(-0.00216289 2.96895e-06 0)
(-0.00217246 2.45143e-06 0)
(-0.00218018 1.93038e-06 0)
(-0.00218606 1.40637e-06 0)
(-0.00219007 8.7957e-07 0)
(-0.00219221 3.50332e-07 0)
(-0.00219248 -1.80261e-07 0)
(-0.00219087 -7.11015e-07 0)
(-0.00218738 -1.24118e-06 0)
(-0.00218201 -1.7704e-06 0)
(-0.00217477 -2.29848e-06 0)
(-0.00216567 -2.82487e-06 0)
(-0.00215471 -3.34842e-06 0)
(-0.0021419 -3.86799e-06 0)
(-0.00212727 -4.38279e-06 0)
(-0.00211082 -4.89224e-06 0)
(-0.00209258 -5.39596e-06 0)
(-0.00207257 -5.89337e-06 0)
(-0.00205082 -6.38337e-06 0)
(-0.00202735 -6.86489e-06 0)
(-0.00200219 -7.33726e-06 0)
(-0.00197539 -7.79995e-06 0)
(-0.00194696 -8.25232e-06 0)
(-0.00191696 -8.69359e-06 0)
(-0.00188542 -9.12281e-06 0)
(-0.00185239 -9.53904e-06 0)
(-0.00181792 -9.94162e-06 0)
(-0.00178204 -1.03299e-05 0)
(-0.00174483 -1.07032e-05 0)
(-0.00170633 -1.10605e-05 0)
(-0.00166659 -1.14011e-05 0)
(-0.00162569 -1.1724e-05 0)
(-0.00158368 -1.20286e-05 0)
(-0.00154063 -1.23142e-05 0)
(-0.00149661 -1.25802e-05 0)
(-0.00145169 -1.28258e-05 0)
(-0.00140594 -1.30502e-05 0)
(-0.00135943 -1.32527e-05 0)
(-0.00131225 -1.34325e-05 0)
(-0.00126448 -1.35891e-05 0)
(-0.0012162 -1.37221e-05 0)
(-0.0011675 -1.38307e-05 0)
(-0.00111845 -1.39145e-05 0)
(-0.00106915 -1.39726e-05 0)
(-0.0010197 -1.40044e-05 0)
(-0.000970184 -1.40093e-05 0)
(-0.000920697 -1.39866e-05 0)
(-0.000871339 -1.39358e-05 0)
(-0.000822208 -1.38565e-05 0)
(-0.000773404 -1.37484e-05 0)
(-0.000725029 -1.36111e-05 0)
(-0.000677186 -1.34443e-05 0)
(-0.000629977 -1.32476e-05 0)
(-0.00058351 -1.30205e-05 0)
(-0.000537888 -1.27626e-05 0)
(-0.00049322 -1.24736e-05 0)
(-0.000449613 -1.21532e-05 0)
(-0.000407174 -1.18015e-05 0)
(-0.00036601 -1.14182e-05 0)
(-0.00032623 -1.10033e-05 0)
(-0.00028794 -1.05569e-05 0)
(-0.000251246 -1.00789e-05 0)
(-0.000216254 -9.56953e-06 0)
(-0.000183068 -9.02922e-06 0)
(-0.000151789 -8.45854e-06 0)
(-0.000122515 -7.85809e-06 0)
(-9.53415e-05 -7.22846e-06 0)
(-7.03604e-05 -6.57053e-06 0)
(-4.76575e-05 -5.88563e-06 0)
(-2.73127e-05 -5.17559e-06 0)
(-9.39749e-06 -4.44261e-06 0)
(6.02639e-06 -3.68932e-06 0)
(1.89094e-05 -2.91894e-06 0)
(2.9217e-05 -2.13572e-06 0)
(3.69336e-05 -1.34516e-06 0)
(4.20677e-05 -5.54801e-07 0)
(4.466e-05 2.24888e-07 0)
(4.47925e-05 9.7942e-07 0)
(4.2602e-05 1.6885e-06 0)
(3.83e-05 2.32206e-06 0)
(3.22024e-05 2.83468e-06 0)
(2.47703e-05 3.15746e-06 0)
(1.66609e-05 3.18604e-06 0)
(8.81475e-06 2.76585e-06 0)
(2.68727e-06 1.70614e-06 0)
(1.4288e-07 1.40772e-07 0)
(2.616e-06 -2.81854e-06 0)
(1.01405e-05 -7.96523e-06 0)
(2.31479e-05 -1.31046e-05 0)
(3.90796e-05 -1.48012e-05 0)
(5.49907e-05 -1.41918e-05 0)
(6.85918e-05 -1.19544e-05 0)
(7.83169e-05 -8.58604e-06 0)
(8.29901e-05 -4.47315e-06 0)
(8.17679e-05 1.37161e-07 0)
(7.40826e-05 5.05166e-06 0)
(5.95418e-05 1.01429e-05 0)
(3.7929e-05 1.53198e-05 0)
(9.14178e-06 2.05076e-05 0)
(-2.68544e-05 2.56514e-05 0)
(-6.99877e-05 3.07089e-05 0)
(-0.00012016 3.5657e-05 0)
(-0.000177221 4.04625e-05 0)
(-0.000240973 4.51124e-05 0)
(-0.000311209 4.95905e-05 0)
(-0.000387692 5.38845e-05 0)
(-0.000470162 5.79857e-05 0)
(-0.000558354 6.18877e-05 0)
(-0.000651991 6.55854e-05 0)
(-0.000750783 6.90748e-05 0)
(-0.00085444 7.23541e-05 0)
(-0.000962664 7.5423e-05 0)
(-0.00107516 7.82814e-05 0)
(-0.00119161 8.09278e-05 0)
(-0.00131174 8.33607e-05 0)
(-0.00143522 8.55838e-05 0)
(-0.00156177 8.75988e-05 0)
(-0.00169108 8.94059e-05 0)
(-0.00182285 9.10091e-05 0)
(-0.00195681 9.24098e-05 0)
(-0.00209264 9.36099e-05 0)
(-0.00223007 9.46122e-05 0)
(-0.00236882 9.54197e-05 0)
(-0.0025086 9.60355e-05 0)
(-0.00264914 9.64643e-05 0)
(-0.00279018 9.67093e-05 0)
(-0.00293144 9.67733e-05 0)
(-0.00307267 9.66613e-05 0)
(-0.00321361 9.63791e-05 0)
(-0.00335403 9.59303e-05 0)
(-0.00349367 9.53168e-05 0)
(-0.0036323 9.45418e-05 0)
(-0.00376968 9.36102e-05 0)
(-0.0039056 9.2526e-05 0)
(-0.00403983 9.12927e-05 0)
(-0.00417216 8.99149e-05 0)
(-0.00430239 8.83976e-05 0)
(-0.00443029 8.67445e-05 0)
(-0.00455569 8.49594e-05 0)
(-0.0046784 8.30467e-05 0)
(-0.00479822 8.10108e-05 0)
(-0.00491498 7.88555e-05 0)
(-0.00502851 7.65844e-05 0)
(-0.00513864 7.42024e-05 0)
(-0.00524522 7.1714e-05 0)
(-0.00534808 6.9123e-05 0)
(-0.00544709 6.64327e-05 0)
(-0.0055421 6.36479e-05 0)
(-0.00563297 6.07735e-05 0)
(-0.00571958 5.78141e-05 0)
(-0.00580181 5.47738e-05 0)
(-0.00587953 5.16566e-05 0)
(-0.00595265 4.8467e-05 0)
(-0.00602105 4.52091e-05 0)
(-0.00608465 4.1887e-05 0)
(-0.00614334 3.8505e-05 0)
(-0.00619704 3.50678e-05 0)
(-0.00624569 3.15795e-05 0)
(-0.0062892 2.80444e-05 0)
(-0.00632751 2.44669e-05 0)
(-0.00636057 2.08523e-05 0)
(-0.00638833 1.72057e-05 0)
(-0.00641073 1.35319e-05 0)
(-0.00642775 9.83521e-06 0)
(-0.00643935 6.12008e-06 0)
(-0.00644552 2.39136e-06 0)
(-0.00644623 -1.34552e-06 0)
(-0.00644148 -5.0852e-06 0)
(-0.00643127 -8.82308e-06 0)
(-0.0064156 -1.25548e-05 0)
(-0.00639449 -1.62757e-05 0)
(-0.00636795 -1.99809e-05 0)
(-0.00633602 -2.36648e-05 0)
(-0.00629874 -2.73214e-05 0)
(-0.00625613 -3.09458e-05 0)
(-0.00620826 -3.45329e-05 0)
(-0.00615519 -3.80778e-05 0)
(-0.00609697 -4.15754e-05 0)
(-0.00603369 -4.50198e-05 0)
(-0.00596543 -4.84055e-05 0)
(-0.00589227 -5.17272e-05 0)
(-0.00581432 -5.49798e-05 0)
(-0.00573167 -5.81582e-05 0)
(-0.00564445 -6.12567e-05 0)
(-0.00555277 -6.42698e-05 0)
(-0.00545676 -6.71919e-05 0)
(-0.00535656 -7.00179e-05 0)
(-0.00525231 -7.27424e-05 0)
(-0.00514418 -7.536e-05 0)
(-0.0050323 -7.78651e-05 0)
(-0.00491687 -8.02523e-05 0)
(-0.00479804 -8.25163e-05 0)
(-0.00467601 -8.46521e-05 0)
(-0.00455096 -8.66544e-05 0)
(-0.0044231 -8.85184e-05 0)
(-0.00429263 -9.02388e-05 0)
(-0.00415976 -9.18105e-05 0)
(-0.00402471 -9.32283e-05 0)
(-0.00388772 -9.4488e-05 0)
(-0.003749 -9.55853e-05 0)
(-0.00360881 -9.6516e-05 0)
(-0.00346739 -9.72757e-05 0)
(-0.00332499 -9.78599e-05 0)
(-0.00318187 -9.82643e-05 0)
(-0.0030383 -9.84847e-05 0)
(-0.00289454 -9.85172e-05 0)
(-0.00275087 -9.83583e-05 0)
(-0.00260757 -9.80045e-05 0)
(-0.00246492 -9.74529e-05 0)
(-0.00232322 -9.67008e-05 0)
(-0.00218275 -9.57458e-05 0)
(-0.00204381 -9.45857e-05 0)
(-0.0019067 -9.32181e-05 0)
(-0.00177172 -9.1641e-05 0)
(-0.00163917 -8.98525e-05 0)
(-0.00150935 -8.78517e-05 0)
(-0.00138258 -8.56379e-05 0)
(-0.00125915 -8.32108e-05 0)
(-0.00113938 -8.05708e-05 0)
(-0.00102356 -7.77185e-05 0)
(-0.000912001 -7.4655e-05 0)
(-0.000804993 -7.13823e-05 0)
(-0.000702833 -6.79036e-05 0)
(-0.000605806 -6.42228e-05 0)
(-0.000514193 -6.03452e-05 0)
(-0.000428262 -5.6277e-05 0)
(-0.000348271 -5.20257e-05 0)
(-0.000274464 -4.7601e-05 0)
(-0.000207068 -4.30148e-05 0)
(-0.000146287 -3.8282e-05 0)
(-9.23014e-05 -3.3421e-05 0)
(-4.52574e-05 -2.84543e-05 0)
(-5.26367e-06 -2.34097e-05 0)
(2.7619e-05 -1.83219e-05 0)
(5.33891e-05 -1.32351e-05 0)
(7.21185e-05 -8.20566e-06 0)
(8.39717e-05 -3.30706e-06 0)
(8.92305e-05 1.36454e-06 0)
(8.83255e-05 5.68177e-06 0)
(8.18784e-05 9.4733e-06 0)
(7.07572e-05 1.25055e-05 0)
(5.61427e-05 1.44617e-05 0)
(3.95774e-05 1.49234e-05 0)
(2.30245e-05 1.33576e-05 0)
(9.2302e-06 9.2047e-06 0)
(1.72068e-06 2.69066e-06 0)
(2.88018e-06 -8.76313e-06 0)
(1.32502e-05 -2.19975e-05 0)
(3.0709e-05 -3.0595e-05 0)
(5.02745e-05 -3.31259e-05 0)
(6.84663e-05 -3.06525e-05 0)
(8.26627e-05 -2.43786e-05 0)
(9.07467e-05 -1.53235e-05 0)
(9.10763e-05 -4.25104e-06 0)
(8.24228e-05 8.21006e-06 0)
(6.38787e-05 2.16131e-05 0)
(3.48456e-05 3.56004e-05 0)
(-5.09059e-06 4.99138e-05 0)
(-5.61496e-05 6.43394e-05 0)
(-0.000118393 7.87203e-05 0)
(-0.000191799 9.2935e-05 0)
(-0.000276234 0.000106875 0)
(-0.000371488 0.000120476 0)
(-0.000477304 0.000133668 0)
(-0.000593367 0.000146402 0)
(-0.000719323 0.000158645 0)
(-0.000854792 0.000170362 0)
(-0.000999365 0.000181529 0)
(-0.00115261 0.00019213 0)
(-0.00131409 0.000202151 0)
(-0.00148333 0.000211578 0)
(-0.00165989 0.00022041 0)
(-0.00184328 0.000228641 0)
(-0.00203303 0.000236267 0)
(-0.00222866 0.00024329 0)
(-0.00242969 0.000249711 0)
(-0.00263565 0.000255534 0)
(-0.00284605 0.000260761 0)
(-0.00306042 0.000265398 0)
(-0.00327829 0.000269453 0)
(-0.00349919 0.000272931 0)
(-0.00372267 0.000275837 0)
(-0.00394826 0.000278183 0)
(-0.00417553 0.000279976 0)
(-0.00440403 0.000281226 0)
(-0.00463332 0.000281943 0)
(-0.00486298 0.000282138 0)
(-0.00509259 0.000281821 0)
(-0.00532174 0.000281005 0)
(-0.00555003 0.000279701 0)
(-0.00577706 0.000277918 0)
(-0.00600245 0.000275668 0)
(-0.00622582 0.00027296 0)
(-0.00644681 0.000269807 0)
(-0.00666506 0.000266221 0)
(-0.00688023 0.000262213 0)
(-0.00709196 0.000257796 0)
(-0.00729995 0.000252982 0)
(-0.00750386 0.000247782 0)
(-0.00770338 0.00024221 0)
(-0.00789823 0.000236277 0)
(-0.0080881 0.000229993 0)
(-0.00827271 0.000223372 0)
(-0.00845181 0.000216426 0)
(-0.00862511 0.000209168 0)
(-0.00879239 0.00020161 0)
(-0.00895338 0.000193763 0)
(-0.00910788 0.00018564 0)
(-0.00925565 0.000177254 0)
(-0.00939648 0.000168618 0)
(-0.00953018 0.000159745 0)
(-0.00965656 0.000150647 0)
(-0.00977543 0.000141336 0)
(-0.00988664 0.000131826 0)
(-0.00999002 0.000122128 0)
(-0.0100854 0.000112257 0)
(-0.0101727 0.000102223 0)
(-0.0102518 9.20417e-05 0)
(-0.0103225 8.17246e-05 0)
(-0.0103847 7.1286e-05 0)
(-0.0104384 6.07396e-05 0)
(-0.0104835 5.00997e-05 0)
(-0.0105198 3.93798e-05 0)
(-0.0105474 2.85935e-05 0)
(-0.0105662 1.77547e-05 0)
(-0.0105762 6.87757e-06 0)
(-0.0105772 -4.02329e-06 0)
(-0.0105694 -1.49332e-05 0)
(-0.0105527 -2.58378e-05 0)
(-0.0105272 -3.67232e-05 0)
(-0.0104928 -4.75753e-05 0)
(-0.0104495 -5.8379e-05 0)
(-0.0103975 -6.91193e-05 0)
(-0.0103368 -7.97806e-05 0)
(-0.0102675 -9.03474e-05 0)
(-0.0101895 -0.000100805 0)
(-0.0101032 -0.000111138 0)
(-0.0100084 -0.000121331 0)
(-0.00990548 -0.000131368 0)
(-0.00979443 -0.000141234 0)
(-0.00967542 -0.000150912 0)
(-0.00954862 -0.000160389 0)
(-0.00941421 -0.000169647 0)
(-0.00927236 -0.000178671 0)
(-0.00912327 -0.000187445 0)
(-0.00896716 -0.000195954 0)
(-0.00880424 -0.000204182 0)
(-0.00863476 -0.000212113 0)
(-0.00845895 -0.000219731 0)
(-0.00827709 -0.000227022 0)
(-0.00808945 -0.000233968 0)
(-0.0078963 -0.000240555 0)
(-0.00769796 -0.000246769 0)
(-0.00749472 -0.000252593 0)
(-0.00728692 -0.000258015 0)
(-0.00707488 -0.000263017 0)
(-0.00685896 -0.000267588 0)
(-0.0066395 -0.000271711 0)
(-0.00641688 -0.000275374 0)
(-0.00619148 -0.000278565 0)
(-0.00596367 -0.00028127 0)
(-0.00573388 -0.000283477 0)
(-0.00550249 -0.000285174 0)
(-0.00526994 -0.000286348 0)
(-0.00503665 -0.000286988 0)
(-0.00480305 -0.000287084 0)
(-0.00456959 -0.000286626 0)
(-0.00433672 -0.000285604 0)
(-0.00410489 -0.000284009 0)
(-0.00387458 -0.000281834 0)
(-0.00364626 -0.000279072 0)
(-0.00342039 -0.000275717 0)
(-0.00319747 -0.000271762 0)
(-0.00297797 -0.000267205 0)
(-0.00276237 -0.000262039 0)
(-0.00255117 -0.000256265 0)
(-0.00234485 -0.000249879 0)
(-0.0021439 -0.000242883 0)
(-0.00194881 -0.000235279 0)
(-0.00176005 -0.00022707 0)
(-0.0015781 -0.000218262 0)
(-0.00140343 -0.000208862 0)
(-0.00123651 -0.000198881 0)
(-0.00107778 -0.000188334 0)
(-0.000927669 -0.000177236 0)
(-0.000786604 -0.000165609 0)
(-0.00065498 -0.000153478 0)
(-0.000533166 -0.000140875 0)
(-0.000421502 -0.000127838 0)
(-0.000320293 -0.000114414 0)
(-0.000229795 -0.00010066 0)
(-0.000150215 -8.66468e-05 0)
(-8.16925e-05 -7.24588e-05 0)
(-2.42877e-05 -5.82021e-05 0)
(2.20344e-05 -4.40083e-05 0)
(5.74262e-05 -3.00423e-05 0)
(8.21841e-05 -1.65128e-05 0)
(9.67814e-05 -3.68522e-06 0)
(0.000101908 8.1012e-06 0)
(9.852e-05 1.84099e-05 0)
(8.7901e-05 2.66799e-05 0)
(7.17234e-05 3.21999e-05 0)
(5.2075e-05 3.4096e-05 0)
(3.14803e-05 3.13622e-05 0)
(1.34391e-05 2.30212e-05 0)
(2.79619e-06 8.84923e-06 0)
(3.12582e-06 -1.68444e-05 0)
(1.44077e-05 -3.82477e-05 0)
(3.26716e-05 -5.02842e-05 0)
(5.19607e-05 -5.25302e-05 0)
(6.828e-05 -4.65637e-05 0)
(7.8666e-05 -3.41974e-05 0)
(8.07265e-05 -1.69547e-05 0)
(7.25107e-05 3.90232e-06 0)
(5.24949e-05 2.73756e-05 0)
(1.95785e-05 5.26658e-05 0)
(-2.70653e-05 7.91492e-05 0)
(-8.79683e-05 0.000106325 0)
(-0.000163452 0.000133815 0)
(-0.000253662 0.000161298 0)
(-0.000358582 0.000188531 0)
(-0.000478081 0.000215317 0)
(-0.000611925 0.000241497 0)
(-0.000759795 0.000266942 0)
(-0.000921301 0.000291552 0)
(-0.001096 0.000315243 0)
(-0.00128341 0.000337949 0)
(-0.001483 0.00035962 0)
(-0.00169421 0.000380215 0)
(-0.00191646 0.000399701 0)
(-0.00214915 0.000418055 0)
(-0.00239167 0.000435262 0)
(-0.00264339 0.000451308 0)
(-0.00290367 0.000466187 0)
(-0.00317189 0.000479898 0)
(-0.00344739 0.00049244 0)
(-0.00372954 0.000503818 0)
(-0.00401769 0.000514038 0)
(-0.00431121 0.00052311 0)
(-0.00460946 0.000531042 0)
(-0.00491181 0.000537849 0)
(-0.00521765 0.000543542 0)
(-0.00552635 0.000548137 0)
(-0.00583731 0.000551652 0)
(-0.00614993 0.000554104 0)
(-0.00646362 0.000555511 0)
(-0.00677781 0.000555892 0)
(-0.00709191 0.00055527 0)
(-0.00740538 0.000553665 0)
(-0.00771765 0.000551097 0)
(-0.00802821 0.000547587 0)
(-0.00833652 0.000543157 0)
(-0.00864208 0.000537829 0)
(-0.00894437 0.000531624 0)
(-0.00924291 0.000524567 0)
(-0.00953724 0.000516678 0)
(-0.00982688 0.000507982 0)
(-0.0101114 0.000498502 0)
(-0.0103903 0.000488262 0)
(-0.0106633 0.000477286 0)
(-0.0109298 0.000465597 0)
(-0.0111895 0.000453217 0)
(-0.0114421 0.000440172 0)
(-0.011687 0.000426487 0)
(-0.0119241 0.000412183 0)
(-0.0121529 0.000397286 0)
(-0.0123731 0.00038182 0)
(-0.0125845 0.00036581 0)
(-0.0127866 0.000349281 0)
(-0.0129792 0.000332257 0)
(-0.0131621 0.000314765 0)
(-0.0133349 0.000296827 0)
(-0.0134975 0.00027847 0)
(-0.0136496 0.000259719 0)
(-0.0137909 0.000240598 0)
(-0.0139214 0.000221135 0)
(-0.0140407 0.000201354 0)
(-0.0141488 0.000181281 0)
(-0.0142455 0.000160942 0)
(-0.0143305 0.000140365 0)
(-0.0144039 0.000119576 0)
(-0.0144654 9.8603e-05 0)
(-0.0145151 7.74723e-05 0)
(-0.0145528 5.62115e-05 0)
(-0.0145784 3.48481e-05 0)
(-0.0145919 1.34105e-05 0)
(-0.0145932 -8.07324e-06 0)
(-0.0145825 -2.95747e-05 0)
(-0.0145595 -5.10655e-05 0)
(-0.0145245 -7.2517e-05 0)
(-0.0144773 -9.39007e-05 0)
(-0.014418 -0.000115187 0)
(-0.0143468 -0.000136347 0)
(-0.0142636 -0.00015735 0)
(-0.0141687 -0.000178166 0)
(-0.014062 -0.000198766 0)
(-0.0139438 -0.000219118 0)
(-0.0138141 -0.000239193 0)
(-0.0136732 -0.00025896 0)
(-0.0135213 -0.000278388 0)
(-0.0133584 -0.000297447 0)
(-0.0131849 -0.000316105 0)
(-0.013001 -0.000334332 0)
(-0.012807 -0.000352097 0)
(-0.012603 -0.000369368 0)
(-0.0123895 -0.000386116 0)
(-0.0121667 -0.000402308 0)
(-0.0119349 -0.000417915 0)
(-0.0116944 -0.000432906 0)
(-0.0114457 -0.000447249 0)
(-0.0111891 -0.000460916 0)
(-0.010925 -0.000473875 0)
(-0.0106538 -0.000486098 0)
(-0.0103759 -0.000497555 0)
(-0.0100918 -0.000508217 0)
(-0.00980192 -0.000518057 0)
(-0.00950672 -0.000527046 0)
(-0.00920669 -0.000535156 0)
(-0.00890234 -0.000542362 0)
(-0.00859418 -0.000548638 0)
(-0.00828276 -0.000553959 0)
(-0.0079686 -0.000558301 0)
(-0.00765227 -0.00056164 0)
(-0.00733434 -0.000563954 0)
(-0.00701538 -0.000565221 0)
(-0.006696 -0.00056542 0)
(-0.00637679 -0.000564533 0)
(-0.00605836 -0.000562541 0)
(-0.00574134 -0.000559428 0)
(-0.00542636 -0.00055518 0)
(-0.00511406 -0.000549783 0)
(-0.00480507 -0.000543227 0)
(-0.00450004 -0.0005355 0)
(-0.00419964 -0.000526596 0)
(-0.00390451 -0.000516509 0)
(-0.0036153 -0.000505235 0)
(-0.00333268 -0.000492773 0)
(-0.0030573 -0.000479128 0)
(-0.0027898 -0.000464303 0)
(-0.00253083 -0.000448309 0)
(-0.00228102 -0.000431158 0)
(-0.002041 -0.000412868 0)
(-0.00181138 -0.000393463 0)
(-0.00159275 -0.000372973 0)
(-0.00138567 -0.000351434 0)
(-0.00119071 -0.000328891 0)
(-0.00100836 -0.000305399 0)
(-0.000839113 -0.000281022 0)
(-0.000683395 -0.000255842 0)
(-0.000541588 -0.000229953 0)
(-0.000414011 -0.000203473 0)
(-0.000300906 -0.000176543 0)
(-0.000202429 -0.000149334 0)
(-0.000118626 -0.000122057 0)
(-4.94192e-05 -9.49674e-05 0)
(5.42396e-06 -6.83835e-05 0)
(4.63182e-05 -4.26982e-05 0)
(7.38969e-05 -1.84011e-05 0)
(8.90543e-05 3.89739e-06 0)
(9.29935e-05 2.34363e-05 0)
(8.72838e-05 3.92711e-05 0)
(7.39154e-05 5.02485e-05 0)
(5.53116e-05 5.49998e-05 0)
(3.43529e-05 5.19893e-05 0)
(1.50648e-05 3.96572e-05 0)
(3.22997e-06 1.67585e-05 0)
(3.02699e-06 -2.44565e-05 0)
(1.36866e-05 -5.39454e-05 0)
(3.0123e-05 -6.84475e-05 0)
(4.60086e-05 -6.88669e-05 0)
(5.70202e-05 -5.75751e-05 0)
(6.00495e-05 -3.70204e-05 0)
(5.24847e-05 -9.2729e-06 0)
(3.22007e-05 2.39145e-05 0)
(-2.47067e-06 6.11339e-05 0)
(-5.28284e-05 0.000101223 0)
(-0.000119796 0.000143249 0)
(-0.000204035 0.000186463 0)
(-0.000305948 0.000230247 0)
(-0.000425725 0.00027412 0)
(-0.000563386 0.000317677 0)
(-0.0007188 0.000360596 0)
(-0.00089171 0.000402615 0)
(-0.00108176 0.000443519 0)
(-0.0012885 0.000483137 0)
(-0.00151142 0.000521323 0)
(-0.00174994 0.000557967 0)
(-0.00200343 0.000592977 0)
(-0.00227122 0.000626279 0)
(-0.00255262 0.000657817 0)
(-0.0028469 0.000687548 0)
(-0.00315332 0.000715439 0)
(-0.0034711 0.000741467 0)
(-0.00379948 0.000765617 0)
(-0.00413768 0.000787881 0)
(-0.0044849 0.000808259 0)
(-0.00484035 0.000826752 0)
(-0.00520325 0.000843369 0)
(-0.0055728 0.000858123 0)
(-0.00594822 0.000871029 0)
(-0.00632873 0.000882103 0)
(-0.00671356 0.000891367 0)
(-0.00710193 0.000898846 0)
(-0.00749311 0.000904564 0)
(-0.00788633 0.000908548 0)
(-0.00828087 0.000910829 0)
(-0.008676 0.000911436 0)
(-0.009071 0.000910403 0)
(-0.00946519 0.000907761 0)
(-0.00985787 0.000903544 0)
(-0.0102484 0.000897786 0)
(-0.010636 0.000890521 0)
(-0.0110202 0.000881786 0)
(-0.0114003 0.000871616 0)
(-0.0117757 0.000860048 0)
(-0.0121458 0.000847118 0)
(-0.0125099 0.000832865 0)
(-0.0128676 0.000817327 0)
(-0.0132183 0.000800542 0)
(-0.0135615 0.000782547 0)
(-0.0138966 0.000763382 0)
(-0.0142231 0.000743086 0)
(-0.0145406 0.000721697 0)
(-0.0148486 0.000699256 0)
(-0.0151467 0.0006758 0)
(-0.0154343 0.000651371 0)
(-0.0157112 0.000626008 0)
(-0.0159768 0.000599752 0)
(-0.0162309 0.000572643 0)
(-0.0164731 0.000544723 0)
(-0.016703 0.000516031 0)
(-0.0169202 0.00048661 0)
(-0.0171246 0.000456499 0)
(-0.0173157 0.000425742 0)
(-0.0174934 0.00039438 0)
(-0.0176573 0.000362455 0)
(-0.0178073 0.000330009 0)
(-0.0179431 0.000297085 0)
(-0.0180645 0.000263727 0)
(-0.0181713 0.000229979 0)
(-0.0182635 0.000195884 0)
(-0.0183408 0.000161487 0)
(-0.0184031 0.000126833 0)
(-0.0184503 9.19672e-05 0)
(-0.0184824 5.69344e-05 0)
(-0.0184993 2.17805e-05 0)
(-0.0185009 -1.34478e-05 0)
(-0.0184872 -4.87041e-05 0)
(-0.0184583 -8.39415e-05 0)
(-0.018414 -0.000119113 0)
(-0.0183546 -0.000154171 0)
(-0.01828 -0.000189067 0)
(-0.0181903 -0.000223754 0)
(-0.0180857 -0.000258182 0)
(-0.0179662 -0.000292302 0)
(-0.017832 -0.000326065 0)
(-0.0176833 -0.000359421 0)
(-0.0175202 -0.000392319 0)
(-0.017343 -0.000424711 0)
(-0.0171518 -0.000456546 0)
(-0.0169471 -0.000487774 0)
(-0.0167289 -0.000518343 0)
(-0.0164977 -0.000548203 0)
(-0.0162537 -0.000577304 0)
(-0.0159973 -0.000605595 0)
(-0.0157289 -0.000633026 0)
(-0.0154488 -0.000659546 0)
(-0.0151574 -0.000685105 0)
(-0.0148552 -0.000709653 0)
(-0.0145426 -0.00073314 0)
(-0.0142201 -0.000755517 0)
(-0.0138881 -0.000776736 0)
(-0.0135473 -0.000796748 0)
(-0.0131981 -0.000815506 0)
(-0.012841 -0.000832962 0)
(-0.0124767 -0.000849071 0)
(-0.0121057 -0.000863788 0)
(-0.0117287 -0.000877068 0)
(-0.0113462 -0.000888868 0)
(-0.010959 -0.000899147 0)
(-0.0105676 -0.000907865 0)
(-0.0101728 -0.000914983 0)
(-0.00977529 -0.000920462 0)
(-0.00937572 -0.000924266 0)
(-0.00897485 -0.00092636 0)
(-0.00857342 -0.000926713 0)
(-0.00817218 -0.000925294 0)
(-0.00777189 -0.000922075 0)
(-0.00737332 -0.000917029 0)
(-0.00697727 -0.000910135 0)
(-0.00658452 -0.000901371 0)
(-0.00619588 -0.00089072 0)
(-0.00581214 -0.000878168 0)
(-0.00543411 -0.000863704 0)
(-0.00506262 -0.000847319 0)
(-0.00469846 -0.000829013 0)
(-0.00434245 -0.000808784 0)
(-0.00399539 -0.000786641 0)
(-0.00365809 -0.000762595 0)
(-0.00333132 -0.000736664 0)
(-0.00301588 -0.000708872 0)
(-0.00271252 -0.000679254 0)
(-0.00242198 -0.00064785 0)
(-0.00214499 -0.000614714 0)
(-0.00188223 -0.000579909 0)
(-0.00163437 -0.000543513 0)
(-0.00140201 -0.00050562 0)
(-0.00118572 -0.000466342 0)
(-0.000986021 -0.000425816 0)
(-0.000803348 -0.000384201 0)
(-0.000638065 -0.000341694 0)
(-0.000490444 -0.000298528 0)
(-0.000360645 -0.000254984 0)
(-0.0002487 -0.000211402 0)
(-0.000154486 -0.000168194 0)
(-7.77054e-05 -0.000125861 0)
(-1.7847e-05 -8.50123e-05 0)
(2.58449e-05 -4.63951e-05 0)
(5.44121e-05 -1.09207e-05 0)
(6.92271e-05 2.03001e-05 0)
(7.20445e-05 4.59214e-05 0)
(6.50512e-05 6.43345e-05 0)
(5.08774e-05 7.36577e-05 0)
(3.2639e-05 7.17712e-05 0)
(1.46754e-05 5.63841e-05 0)
(3.21575e-06 2.49641e-05 0)
(2.68429e-06 -3.13728e-05 0)
(1.15659e-05 -6.74043e-05 0)
(2.4074e-05 -8.26442e-05 0)
(3.39813e-05 -7.93277e-05 0)
(3.69169e-05 -6.06529e-05 0)
(2.96414e-05 -2.97038e-05 0)
(9.48201e-06 1.08661e-05 0)
(-2.5781e-05 5.88539e-05 0)
(-7.79259e-05 0.0001124 0)
(-0.000148317 0.00016999 0)
(-0.000237989 0.000230363 0)
(-0.000347663 0.000292484 0)
(-0.000477797 0.000355512 0)
(-0.000628627 0.000418747 0)
(-0.00080019 0.000481616 0)
(-0.000992356 0.000543652 0)
(-0.00120485 0.000604468 0)
(-0.00143729 0.000663746 0)
(-0.00168918 0.000721224 0)
(-0.00195994 0.00077669 0)
(-0.00224891 0.000829969 0)
(-0.00255539 0.000880918 0)
(-0.00287862 0.000929423 0)
(-0.00321778 0.000975396 0)
(-0.00357205 0.00101876 0)
(-0.00394056 0.00105947 0)
(-0.00432242 0.00109749 0)
(-0.00471674 0.00113278 0)
(-0.0051226 0.00116533 0)
(-0.00553907 0.00119513 0)
(-0.00596524 0.00122218 0)
(-0.00640017 0.0012465 0)
(-0.00684293 0.0012681 0)
(-0.00729261 0.00128699 0)
(-0.00774827 0.0013032 0)
(-0.00820902 0.00131676 0)
(-0.00867393 0.0013277 0)
(-0.00914213 0.00133606 0)
(-0.00961272 0.00134188 0)
(-0.0100848 0.00134519 0)
(-0.0105576 0.00134604 0)
(-0.0110302 0.00134448 0)
(-0.0115018 0.00134054 0)
(-0.0119716 0.00133429 0)
(-0.0124387 0.00132577 0)
(-0.0129024 0.00131503 0)
(-0.013362 0.00130212 0)
(-0.0138166 0.0012871 0)
(-0.0142655 0.00127001 0)
(-0.0147081 0.00125091 0)
(-0.0151437 0.00122986 0)
(-0.0155715 0.00120692 0)
(-0.0159909 0.00118213 0)
(-0.0164013 0.00115555 0)
(-0.0168021 0.00112725 0)
(-0.0171926 0.00109727 0)
(-0.0175723 0.00106569 0)
(-0.0179406 0.00103254 0)
(-0.018297 0.000997898 0)
(-0.018641 0.000961815 0)
(-0.0189721 0.000924354 0)
(-0.0192898 0.000885572 0)
(-0.0195936 0.00084553 0)
(-0.0198831 0.000804288 0)
(-0.020158 0.000761906 0)
(-0.0204177 0.000718445 0)
(-0.020662 0.000673967 0)
(-0.0208905 0.000628534 0)
(-0.0211029 0.000582206 0)
(-0.0212989 0.000535048 0)
(-0.0214782 0.000487121 0)
(-0.0216404 0.000438489 0)
(-0.0217855 0.000389217 0)
(-0.0219132 0.00033937 0)
(-0.0220233 0.000289012 0)
(-0.0221156 0.000238209 0)
(-0.02219 0.000187027 0)
(-0.0222464 0.000135534 0)
(-0.0222846 8.37958e-05 0)
(-0.0223046 3.18807e-05 0)
(-0.0223064 -2.01429e-05 0)
(-0.0222899 -7.22058e-05 0)
(-0.0222552 -0.000124239 0)
(-0.0222022 -0.000176172 0)
(-0.022131 -0.000227935 0)
(-0.0220416 -0.000279458 0)
(-0.0219343 -0.000330668 0)
(-0.021809 -0.000381494 0)
(-0.021666 -0.000431862 0)
(-0.0215055 -0.000481701 0)
(-0.0213275 -0.000530936 0)
(-0.0211324 -0.000579494 0)
(-0.0209204 -0.000627301 0)
(-0.0206918 -0.000674284 0)
(-0.0204469 -0.000720367 0)
(-0.020186 -0.000765476 0)
(-0.0199095 -0.000809537 0)
(-0.0196177 -0.000852475 0)
(-0.0193111 -0.000894216 0)
(-0.0189901 -0.000934685 0)
(-0.0186552 -0.000973808 0)
(-0.0183068 -0.00101151 0)
(-0.0179455 -0.00104772 0)
(-0.0175717 -0.00108237 0)
(-0.0171862 -0.00111537 0)
(-0.0167893 -0.00114667 0)
(-0.0163818 -0.00117619 0)
(-0.0159643 -0.00120385 0)
(-0.0155375 -0.0012296 0)
(-0.015102 -0.00125336 0)
(-0.0146585 -0.00127507 0)
(-0.0142078 -0.00129467 0)
(-0.0137506 -0.00131208 0)
(-0.0132876 -0.00132725 0)
(-0.0128197 -0.00134013 0)
(-0.0123477 -0.00135065 0)
(-0.0118725 -0.00135876 0)
(-0.0113947 -0.0013644 0)
(-0.0109154 -0.00136754 0)
(-0.0104353 -0.00136811 0)
(-0.00995548 -0.00136608 0)
(-0.0094767 -0.00136141 0)
(-0.00899993 -0.00135406 0)
(-0.0085261 -0.001344 0)
(-0.00805613 -0.00133119 0)
(-0.00759098 -0.00131563 0)
(-0.00713159 -0.00129728 0)
(-0.00667892 -0.00127613 0)
(-0.00623393 -0.00125218 0)
(-0.00579756 -0.00122542 0)
(-0.00537077 -0.00119586 0)
(-0.0049545 -0.00116351 0)
(-0.0045497 -0.00112839 0)
(-0.00415728 -0.00109053 0)
(-0.00377814 -0.00104998 0)
(-0.00341319 -0.00100678 0)
(-0.00306328 -0.000961005 0)
(-0.00272923 -0.000912735 0)
(-0.00241186 -0.000862069 0)
(-0.00211191 -0.000809127 0)
(-0.00183008 -0.000754053 0)
(-0.00156703 -0.000697018 0)
(-0.00132332 -0.000638225 0)
(-0.00109945 -0.000577918 0)
(-0.000895817 -0.000516385 0)
(-0.000712721 -0.00045397 0)
(-0.000550322 -0.000391085 0)
(-0.00040864 -0.00032822 0)
(-0.000287519 -0.000265963 0)
(-0.000186611 -0.000205022 0)
(-0.000105335 -0.000146244 0)
(-4.2852e-05 -9.06533e-05 0)
(1.97733e-06 -3.94763e-05 0)
(3.06302e-05 5.81551e-06 0)
(4.49696e-05 4.34693e-05 0)
(4.72914e-05 7.14161e-05 0)
(4.03397e-05 8.72487e-05 0)
(2.73647e-05 8.82277e-05 0)
(1.2813e-05 7.1265e-05 0)
(2.90995e-06 3.25341e-05 0)
(2.1766e-06 -3.69236e-05 0)
(8.43259e-06 -7.71284e-05 0)
(1.5393e-05 -9.08692e-05 0)
(1.72867e-05 -8.15696e-05 0)
(9.8711e-06 -5.32451e-05 0)
(-1.00867e-05 -9.61622e-06 0)
(-4.52913e-05 4.61372e-05 0)
(-9.7976e-05 0.000111315 0)
(-0.000169937 0.000183665 0)
(-0.000262595 0.000261283 0)
(-0.000377015 0.000342588 0)
(-0.000513956 0.000426261 0)
(-0.000673912 0.000511204 0)
(-0.000857138 0.000596498 0)
(-0.00106368 0.000681389 0)
(-0.0012934 0.000765241 0)
(-0.00154602 0.000847531 0)
(-0.00182111 0.000927821 0)
(-0.00211814 0.00100575 0)
(-0.00243648 0.00108102 0)
(-0.0027754 0.00115338 0)
(-0.00313413 0.00122264 0)
(-0.00351182 0.00128862 0)
(-0.00390756 0.0013512 0)
(-0.00432044 0.00141028 0)
(-0.00474947 0.00146576 0)
(-0.00519367 0.00151759 0)
(-0.00565201 0.00156573 0)
(-0.00612347 0.00161015 0)
(-0.00660701 0.00165084 0)
(-0.00710156 0.00168778 0)
(-0.00760608 0.001721 0)
(-0.00811951 0.0017505 0)
(-0.0086408 0.0017763 0)
(-0.0091689 0.00179845 0)
(-0.00970276 0.00181696 0)
(-0.0102414 0.00183189 0)
(-0.0107837 0.00184328 0)
(-0.0113287 0.00185118 0)
(-0.0118753 0.00185565 0)
(-0.0124227 0.00185674 0)
(-0.0129699 0.00185451 0)
(-0.0135158 0.00184903 0)
(-0.0140596 0.00184036 0)
(-0.0146003 0.00182857 0)
(-0.015137 0.00181372 0)
(-0.0156688 0.00179589 0)
(-0.016195 0.00177514 0)
(-0.0167145 0.00175155 0)
(-0.0172267 0.0017252 0)
(-0.0177307 0.00169616 0)
(-0.0182258 0.0016645 0)
(-0.0187111 0.0016303 0)
(-0.0191859 0.00159364 0)
(-0.0196496 0.00155459 0)
(-0.0201015 0.00151324 0)
(-0.0205408 0.00146966 0)
(-0.0209669 0.00142394 0)
(-0.0213793 0.00137615 0)
(-0.0217772 0.00132638 0)
(-0.0221602 0.0012747 0)
(-0.0225277 0.0012212 0)
(-0.0228792 0.00116596 0)
(-0.0232141 0.00110906 0)
(-0.023532 0.0010506 0)
(-0.0238325 0.000990642 0)
(-0.0241151 0.000929283 0)
(-0.0243794 0.000866606 0)
(-0.024625 0.000802697 0)
(-0.0248516 0.000737642 0)
(-0.0250589 0.000671528 0)
(-0.0252465 0.000604443 0)
(-0.0254143 0.000536476 0)
(-0.0255619 0.000467717 0)
(-0.0256891 0.000398254 0)
(-0.0257958 0.000328181 0)
(-0.0258817 0.000257586 0)
(-0.0259468 0.000186564 0)
(-0.0259909 0.000115205 0)
(-0.0260139 4.36053e-05 0)
(-0.0260159 -2.81419e-05 0)
(-0.0259967 -9.9941e-05 0)
(-0.0259563 -0.000171696 0)
(-0.0258949 -0.000243311 0)
(-0.0258124 -0.000314689 0)
(-0.0257089 -0.000385732 0)