/*--------------------------------*- C++ -*----------------------------------*\
  =========                 |
  \\      /  F ield         | OpenFOAM: The Open Source CFD Toolbox
   \\    /   O peration     | Website:  https://openfoam.org
    \\  /    A nd           | Version:  7
     \\/     M anipulation  |
\*---------------------------------------------------------------------------*/
FoamFile
{
    version     2.0;
    format      ascii;
    class       volScalarField;
    location    "0.375";
    object      p;
}
// * * * * * * * * * * * * * * * * * * * * * * * * * * * * * * * * * * * * * //

dimensions      [0 2 -2 0 0 0 0];

internalField   nonuniform List<scalar> 
6400
(
6.64437e-06
2.36254e-05
-0.00048238
-0.00151527
-0.00295773
-0.00469953
-0.00664034
-0.00869062
-0.0107731
-0.0128225
-0.0147836
-0.0166102
-0.018264
-0.0197132
-0.0209319
-0.0218995
-0.0225999
-0.0230208
-0.0231537
-0.0229932
-0.0225369
-0.0217848
-0.0207394
-0.0194053
-0.0177888
-0.0158983
-0.0137436
-0.0113359
-0.00868798
-0.0058136
-0.00272781
0.000553357
0.00401292
0.007633
0.0113949
0.0152794
0.0192663
0.0233351
0.0274646
0.0316335
0.0358198
0.0400015
0.0441564
0.0482621
0.0522965
0.0562374
0.060063
0.063752
0.0672833
0.0706368
0.0737931
0.0767336
0.0794409
0.0818991
0.0840934
0.0860109
0.0876403
0.0889725
0.0900005
0.0907196
0.091128
0.0912266
0.0910193
0.0905136
0.0897205
0.088655
0.0873366
0.0857892
0.0840424
0.0821313
0.0800977
0.0779907
0.0758679
0.0737964
0.0718536
0.0701281
0.0687167
0.0677235
0.0672552
0.0672925
-5.22873e-07
1.32371e-05
-0.00044036
-0.00132375
-0.00253768
-0.00400295
-0.00564367
-0.00738748
-0.00916912
-0.0109313
-0.0126245
-0.014206
-0.0156398
-0.0168957
-0.0179485
-0.0187779
-0.0193676
-0.019705
-0.0197813
-0.0195902
-0.0191285
-0.0183954
-0.0173924
-0.0161229
-0.0145925
-0.0128082
-0.0107787
-0.00851425
-0.00602625
-0.00332739
-0.000431472
0.00264667
0.00589128
0.00928573
0.0128126
0.0164539
0.0201908
0.024004
0.0278738
0.0317801
0.0357025
0.0396201
0.0435124
0.0473583
0.0511372
0.0548284
0.0584116
0.0618669
0.0651749
0.0683169
0.071275
0.0740321
0.0765725
0.0788814
0.0809457
0.0827536
0.0842954
0.085563
0.0865506
0.0872547
0.0876743
0.087811
0.0876696
0.0872578
0.086587
0.0856721
0.0845321
0.0831905
0.0816753
0.0800197
0.0782627
0.0764492
0.0746306
0.0728654
0.0712191
0.069763
0.0685703
0.0677156
0.0672922
0.0673303
0.000506478
0.000468442
1.45448e-05
-0.000801413
-0.00189217
-0.00319443
-0.00464702
-0.00618984
-0.00776729
-0.00932932
-0.0108316
-0.0122356
-0.0135078
-0.01462
-0.0155482
-0.0162729
-0.0167783
-0.0170519
-0.0170847
-0.0168701
-0.0164047
-0.0156868
-0.0147175
-0.0134996
-0.0120376
-0.010338
-0.00840847
-0.00625839
-0.00389827
-0.00133986
0.00140399
0.00431944
0.00739173
0.0106053
0.0139436
0.0173899
0.0209262
0.0245346
0.0281962
0.0318922
0.0356032
0.0393096
0.0429918
0.0466301
0.0502051
0.0536971
0.0570872
0.0603566
0.0634871
0.0664612
0.0692621
0.0718741
0.0742824
0.0764734
0.0784351
0.0801567
0.0816294
0.0828461
0.0838018
0.0844936
0.0849212
0.0850866
0.0849949
0.084654
0.0840752
0.083273
0.0822657
0.0810757
0.0797294
0.0782578
0.0766968
0.0750872
0.0734748
0.0719107
0.0704506
0.0691541
0.0680804
0.0672898
0.0668675
0.0668647
0.00153942
0.0013544
0.000830691
1.14305e-05
-0.0010367
-0.00226012
-0.00360708
-0.00502688
-0.00647188
-0.00789851
-0.00926759
-0.0105444
-0.0116986
-0.0127041
-0.0135387
-0.014184
-0.0146249
-0.0148496
-0.014849
-0.014617
-0.0141495
-0.0134451
-0.0125041
-0.011329
-0.00992376
-0.00829419
-0.00644747
-0.00439216
-0.00213808
0.000303802
0.00292143
0.00570177
0.00863092
0.0116941
0.0148759
0.01816
0.0215299
0.0249681
0.028457
0.0319785
0.0355142
0.0390456
0.042554
0.0460208
0.0494273
0.052755
0.055986
0.0591024
0.062087
0.0649233
0.0675955
0.0700887
0.072389
0.0744838
0.0763617
0.078013
0.0794292
0.0806042
0.0815332
0.0822141
0.0826467
0.0828334
0.0827792
0.0824918
0.0819822
0.0812644
0.0803555
0.0792767
0.0780525
0.0767116
0.0752865
0.0738141
0.0723351
0.0708941
0.0695391
0.0683206
0.0672892
0.0664966
0.0660107
0.0658751
0.00298823
0.00257674
0.00192519
0.00105302
-2.53617e-06
-0.00119665
-0.00248542
-0.00382656
-0.00517982
-0.00650771
-0.00777603
-0.00895408
-0.0100147
-0.0109343
-0.0116927
-0.0122727
-0.0126604
-0.0128447
-0.0128169
-0.0125711
-0.0121035
-0.0114123
-0.0104978
-0.00936204
-0.0080087
-0.00644301
-0.00467164
-0.00270256
-0.000544923
0.00179095
0.00429374
0.00695117
0.00975006
0.0126765
0.0157157
0.0188525
0.0220709
0.0253544
0.0286864
0.0320494
0.0354261
0.0387988
0.0421498
0.0454612
0.0487153
0.0518947
0.054982
0.0579605
0.0608137
0.0635261
0.0660825
0.068469
0.0706724
0.0726809
0.0744837
0.0760717
0.0774372
0.0785743
0.0794788
0.0801487
0.0805841
0.0807874
0.0807635
0.0805198
0.0800667
0.0794173
0.0785878
0.0775975
0.0764692
0.0752287
0.0739056
0.0725326
0.0711455
0.0697831
0.0684862
0.0672974
0.0662598
0.0654174
0.0648113
0.0644637
0.00475077
0.00406245
0.00323991
0.00227456
0.00117019
-3.61219e-05
-0.00130713
-0.00260814
-0.00390558
-0.00516763
-0.00636483
-0.00747042
-0.00846047
-0.00931395
-0.0100127
-0.0105412
-0.0108867
-0.0110391
-0.0109903
-0.0107347
-0.0102688
-0.00959095
-0.00870125
-0.00760158
-0.00629536
-0.00478745
-0.00308407
-0.00119268
0.000878091
0.00311854
0.00551797
0.00806476
0.0107464
0.0135498
0.0164609
0.0194651
0.0225473
0.0256919
0.0288829
0.0321037
0.0353379
0.0385684
0.0417784
0.0449508
0.0480689
0.0511158
0.054075
0.0569307
0.0596671
0.0622693
0.064723
0.0670149
0.0691325
0.0710645
0.0728007
0.0743326
0.0756528
0.0767557
0.0776376
0.0782965
0.0787325
0.0789479
0.0789473
0.0787378
0.0783288
0.0777326
0.0769641
0.0760411
0.0749841
0.0738165
0.0725645
0.0712569
0.0699251
0.0686023
0.0673231
0.0661229
0.0650386
0.0641069
0.0633377
0.062727
0.00673634
0.00574297
0.00471964
0.00362949
0.0024424
0.0011889
-9.92175e-05
-0.00139392
-0.00266766
-0.00389372
-0.00504708
-0.00610472
-0.00704585
-0.00785203
-0.00850719
-0.00899758
-0.00931178
-0.00944058
-0.00937686
-0.00911551
-0.0086533
-0.0079888
-0.00712223
-0.00605536
-0.00479145
-0.00333509
-0.00169216
0.000130262
0.00212402
0.00427992
0.0065878
0.00903664
0.0116146
0.014309
0.0171067
0.0199938
0.0229557
0.0259776
0.0290441
0.0321396
0.0352481
0.0383535
0.0414395
0.04449
0.0474886
0.0504195
0.0532668
0.0560151
0.0586495
0.0611557
0.0635201
0.0657297
0.0677728
0.0696383
0.0713168
0.0727998
0.0740803
0.0751531
0.0760143
0.0766622
0.0770966
0.0773198
0.0773358
0.0771512
0.0767745
0.076217
0.0754922
0.0746162
0.0736075
0.0724869
0.0712774
0.0700045
0.068695
0.0673775
0.0660809
0.0648343
0.0636695
0.0626171
0.0616549
0.0607517
0.00886566
0.00755377
0.00631058
0.00507248
0.00377659
0.00244818
0.00111469
-0.000201682
-0.00147868
-0.00269421
-0.00382727
-0.00485836
-0.00576969
-0.00654534
-0.00717134
-0.00763571
-0.00792841
-0.00804136
-0.00796832
-0.00770483
-0.00724813
-0.00659708
-0.00575207
-0.00471491
-0.00348878
-0.0020781
-0.000488533
0.00127319
0.00319926
0.00528092
0.00750848
0.00987142
0.0123584
0.0149575
0.0176559
0.0204403
0.023297
0.0262116
0.0291695
0.0321557
0.0351547
0.0381512
0.0411295
0.044074
0.0469692
0.0497997
0.0525502
0.0552059
0.0577526
0.0601763
0.062464
0.0646031
0.0665823
0.068391
0.07002
0.071461
0.0727073
0.0737537
0.0745964
0.0752334
0.0756646
0.0758917
0.0759183
0.0757502
0.0753952
0.0748634
0.0741669
0.07332
0.0723393
0.0712431
0.0700517
0.0687869
0.0674721
0.0661312
0.0647884
0.0634672
0.0621956
0.0609992
0.0598243
0.0586141
0.0110717
0.00943736
0.00796322
0.00656097
0.00513685
0.00371206
0.00231064
0.000949826
-0.000352777
-0.00157916
-0.00271197
-0.00373494
-0.00463307
-0.00539289
-0.00600246
-0.00645154
-0.00673153
-0.0068355
-0.00675816
-0.00649579
-0.00604616
-0.00540853
-0.00458353
-0.00357309
-0.00238041
-0.00100984
0.000533139
0.00224201
0.00410927
0.00612651
0.00828443
0.0105729
0.0129812
0.0154977
0.0181102
0.0208061
0.0235719
0.026394
0.0292584
0.0321504
0.0350554
0.0379584
0.0408444
0.0436984
0.0465054
0.0492503
0.0519186
0.0544959
0.0569683
0.0593224
0.0615454
0.0636253
0.065551
0.0673121
0.0688995
0.0703052
0.0715226
0.0725464
0.0733727
0.0739995
0.0744261
0.0746539
0.0746859
0.0745271
0.0741845
0.073667
0.0729852
0.0721519
0.0711815
0.0700903
0.0688959
0.0676171
0.0662736
0.0648859
0.0634735
0.0620557
0.0606571
0.0593
0.0579006
0.0563785
0.0132985
0.0113436
0.00963309
0.00805587
0.00648935
0.00495176
0.00346461
0.00204094
0.000694334
-0.000560772
-0.00171029
-0.00274087
-0.00364015
-0.00439688
-0.00500114
-0.00544435
-0.00571934
-0.00582037
-0.00574312
-0.00548463
-0.00504331
-0.00441886
-0.00361221
-0.00262551
-0.00146204
-0.000126139
0.00137679
0.00304041
0.00485742
0.0068197
0.00891828
0.0111434
0.0134847
0.015931
0.0184706
0.0210913
0.0237801
0.026524
0.0293092
0.0321219
0.0349476
0.0377722
0.0405809
0.0433591
0.0460924
0.0487662
0.0513663
0.0538787
0.05629
0.0585869
0.060757
0.0627886
0.0646706
0.066393
0.0679468
0.0693239
0.0705177
0.0715229
0.0723353
0.0729526
0.0733739
0.0735998
0.0736329
0.0734773
0.0731391
0.0726259
0.0719471
0.0711139
0.0701388
0.0690359
0.0678206
0.0665088
0.0651175
0.0636636
0.0621632
0.0606314
0.059091
0.0575614
0.0559314
0.0540983
0.0154994
0.0132291
0.0112806
0.00952155
0.0078026
0.00613989
0.00455316
0.00305192
0.00164635
0.000347757
-0.00083264
-0.00188414
-0.00279673
-0.00356132
-0.00416982
-0.00461527
-0.00489189
-0.00499513
-0.00492165
-0.0046693
-0.00423712
-0.00362532
-0.00283522
-0.0018692
-0.000730686
0.000575902
0.0020452
0.00367096
0.00544606
0.00736256
0.00941177
0.0115843
0.01387
0.0162581
0.0187373
0.0212957
0.023921
0.0266004
0.0293205
0.032068
0.0348289
0.0375894
0.0403351
0.043052
0.0457258
0.0483424
0.0508879
0.0533487
0.0557114
0.0579632
0.0600919
0.0620858
0.063934
0.0656266
0.0671545
0.0685098
0.0696855
0.0706761
0.0714774
0.0720866
0.0725022
0.0727246
0.0727554
0.0725979
0.0722573
0.07174
0.0710543
0.0702096
0.069217
0.0680884
0.066837
0.0654766
0.0640215
0.0624858
0.0608824
0.0592235
0.0575304
0.0558206
0.0539573
0.0518175
0.0176349
0.0150562
0.0128704
0.0109257
0.00904749
0.00725059
0.00555366
0.00396327
0.00248671
0.0011326
-9.0363e-05
-0.00117384
-0.00210997
-0.00289161
-0.00351241
-0.00396694
-0.00425076
-0.00436048
-0.00429371
-0.00404915
-0.00362651
-0.00302651
-0.0022509
-0.00130235
-0.000184505
0.00109812
0.00254013
0.0041353
0.00587663
0.00775632
0.0097659
0.0118962
0.0141373
0.0164789
0.0189099
0.0214187
0.0239935
0.0266216
0.0292903
0.0319865
0.0346965
0.0374069
0.0401037
0.0427731
0.0454013
0.0479742
0.0504784
0.0529003
0.0552269
0.0574455
0.059544
0.0615107
0.0633348
0.0650064
0.0665164
0.0678565
0.0690198
0.0700004
0.0707937
0.0713965
0.071807
0.0720247
0.0720507
0.0718874
0.0715389
0.0710107
0.0703096
0.0694439
0.0684228
0.0672568
0.0659569
0.064535
0.063003
0.0613728
0.0596549
0.0578588
0.056005
0.0541101
0.0520133
0.0495727
0.0196716
0.0167921
0.0143714
0.0122391
0.0101971
0.00825956
0.00644443
0.00475591
0.00319882
0.00177952
0.000504476
-0.000620046
-0.00158814
-0.00239443
-0.00303418
-0.0035034
-0.00379894
-0.0039185
-0.00386067
-0.00362495
-0.00321174
-0.00262232
-0.00185886
-0.000924399
0.000177202
0.00144126
0.0028623
0.0044341
0.00614968
0.00800138
0.00998084
0.0120791
0.0142865
0.0165929
0.0189875
0.0214591
0.0239959
0.0265859
0.0292164
0.0318747
0.0345474
0.0372214
0.039883
0.0425185
0.0451144
0.047657
0.0501328
0.0525286
0.0548313
0.0570283
0.0591076
0.0610576
0.0628674
0.0645269
0.0660267
0.0673587
0.0685155
0.0694909
0.0702799
0.0708788
0.0712852
0.071498
0.0715176
0.0713456
0.0709851
0.0704404
0.0697172
0.0688224
0.0677641
0.0665509
0.0651922
0.0636981
0.0620787
0.060344
0.0585024
0.0565615
0.0545414
0.0524586
0.0501295
0.0473945
0.0215807
0.0184081
0.0157555
0.0134352
0.0112267
0.00914395
0.0072047
0.00541118
0.00376615
0.00227399
0.00093927
-0.000233599
-0.00124045
-0.00207752
-0.00274157
-0.00322994
-0.0035407
-0.0036726
-0.00362518
-0.00339873
-0.00299434
-0.00241385
-0.0016599
-0.000735889
0.000354046
0.00160503
0.00301146
0.00456707
0.00626488
0.00809728
0.010056
0.0121323
0.0143165
0.0165989
0.0189687
0.0214151
0.0239264
0.0264909
0.0290963
0.0317298
0.0343786
0.0370295
0.0396692
0.0422843
0.0448612
0.0473865
0.0498467
0.0522287
0.0545196
0.0567067
0.0587779
0.0607216
0.0625268
0.0641831
0.0656811
0.0670121
0.0681686
0.069144
0.0699329
0.0705309
0.0709351
0.0711436
0.0711561
0.0709735
0.0705978
0.0700325
0.0692819
0.0683519
0.067249
0.0659807
0.064555
0.0629802
0.061265
0.0594178
0.0574454
0.0553538
0.0531635
0.0508909
0.0483314
0.0453084
0.0233374
0.0198787
0.0169976
0.0144897
0.0121132
0.00988225
0.00781462
0.00591097
0.00417231
0.00260135
0.001201
-2.59482e-05
-0.0010769
-0.00194955
-0.00264202
-0.00315293
-0.00348144
-0.00362734
-0.00359107
-0.0033737
-0.00297698
-0.00240335
-0.00165591
-0.00073844
0.000344614
0.00158815
0.00298643
0.00453307
0.00622106
0.00804282
0.00999014
0.0120543
0.0142259
0.0164951
0.0188516
0.0212846
0.0237827
0.0263342
0.028927
0.0315488
0.0341867
0.0368278
0.0394588
0.0420665
0.0446375
0.0471583
0.0496157
0.0519963
0.0542874
0.0564761
0.0585503
0.0604982
0.0623086
0.063971
0.0654755
0.0668132
0.0679761
0.0689572
0.0697506
0.0703514
0.0707558
0.0709616
0.0709673
0.0707732
0.0703804
0.0697914
0.0690096
0.0680395
0.0668865
0.0655568
0.0640574
0.0623952
0.0605774
0.0586114
0.0565027
0.054256
0.0518926
0.0494295
0.0466415
0.0433362
0.0249195
0.0211811
0.0180749
0.0153803
0.0128353
0.0104541
0.00825514
0.00623761
0.00440108
0.00274684
0.00127634
-9.0593e-06
-0.00110816
-0.00201998
-0.0027439
-0.00327969
-0.00362758
-0.00378833
-0.00376323
-0.00355411
-0.0031634
-0.0025941
-0.00184979
-0.000934659
0.000146537
0.00138844
0.00278513
0.00433009
0.00601627
0.00783602
0.00978117
0.011843
0.0140123
0.0162793
0.0186337
0.021065
0.0235618
0.0261127
0.0287056
0.0313284
0.0339683
0.0366125
0.039248
0.0418613
0.0444393
0.0469685
0.0494355
0.0518272
0.0541304
0.0563325
0.0584209
0.0603836
0.0622093
0.0638871
0.0654068
0.0667592
0.0679356
0.0689286
0.0697317
0.0703395
0.0707477
0.0709529
0.0709532
0.0707478
0.0703371
0.0697226
0.0689067
0.067893
0.0666857
0.06529
0.0637116
0.0619566
0.0600311
0.0579414
0.055692
0.053287
0.0507484
0.0480941
0.0450794
0.0414964
0.0263072
0.0222945
0.0189664
0.0160864
0.0133727
0.0108402
0.00850792
0.00637388
0.00443643
0.00269564
0.00115169
-0.000195328
-0.00134546
-0.00229896
-0.00305633
-0.00361842
-0.00398646
-0.00416213
-0.00414753
-0.00394524
-0.00355833
-0.00299036
-0.00224542
-0.00132808
-0.000243457
0.00100284
0.00240467
0.00395537
0.00564777
0.00747418
0.00942642
0.0114958
0.013673
0.0159486
0.0183121
0.0207532
0.0232607
0.0258231
0.0284286
0.031065
0.0337198
0.03638
0.0390328
0.0416648
0.0442626
0.046813
0.0493023
0.0517173
0.0540449
0.0562719
0.0583858
0.0603743
0.0622256
0.0639286
0.0654726
0.0668479
0.0680455
0.0690573
0.0698761
0.0704959
0.0709117
0.0711195
0.0711165
0.0709011
0.0704727
0.069832
0.0689805
0.0679209
0.0666564
0.0651911
0.0635299
0.0616779
0.0596406
0.0574234
0.05503
0.052464
0.0497485
0.0469025
0.0436626
0.0398054
0.0274822
0.0232
0.0196526
0.0165884
0.0137063
0.0110221
0.00855518
0.0063029
0.00426246
0.00243287
0.000813229
-0.000597534
-0.00180059
-0.00279727
-0.00358916
-0.00417809
-0.00456625
-0.00475616
-0.00475072
-0.00455323
-0.00416737
-0.00359729
-0.00284754
-0.00192312
-0.000829487
0.000427458
0.00184134
0.00340533
0.00511213
0.00695395
0.00892256
0.0110092
0.0132048
0.0154995
0.0178834
0.0203458
0.0228758
0.0254619
0.0280923
0.0307549
0.0334372
0.0361264
0.0388093
0.0414729
0.0441035
0.0466878
0.0492121
0.0516629
0.054027
0.056291
0.0584419
0.0604673
0.0623549
0.0640931
0.065671
0.0670781
0.0683049
0.0693428
0.0701839
0.0708214
0.0712497
0.0714641
0.0714609
0.0712376
0.0707928
0.0701263
0.0692388
0.068132
0.0668085
0.0652714
0.0635246
0.0615727
0.0594204
0.0570726
0.0545325
0.0518034
0.0489096
0.0458715
0.042407
0.0382779
0.0284275
0.0238795
0.0201152
0.016868
0.013818
0.0109818
0.00837962
0.00600805
0.00386335
0.00194359
0.000246895
-0.00122882
-0.00248576
-0.00352627
-0.00435289
-0.00496841
-0.00537589
-0.00557867
-0.00558041
-0.00538508
-0.00499702
-0.00442089
-0.00366174
-0.002725
-0.00161647
-0.000342355
0.00109072
0.00267573
0.00440522
0.00627129
0.00826563
0.0103795
0.0126036
0.0149283
0.0173436
0.0198388
0.0224031
0.0250249
0.0276926
0.030394
0.0331165
0.0358474
0.0385735
0.0412815
0.0439579
0.0465889
0.049161
0.0516603
0.0540733
0.0563863
0.0585862
0.0606598
0.0625948
0.0643788
0.0660004
0.0674487
0.0687135
0.0697855
0.0706562
0.071318
0.0717645
0.0719902
0.0719906
0.0717626
0.0713037
0.0706129
0.06969
0.068536
0.0671525
0.0655422
0.0637081
0.0616542
0.0593846
0.0569039
0.054215
0.0513208
0.0482473
0.0450162
0.0413271
0.0369272
0.0291272
0.024316
0.0203366
0.0169074
0.01369
0.0107019
0.00796424
0.00547289
0.00322329
0.00121272
-0.000561611
-0.0021027
-0.00341368
-0.00449784
-0.00535864
-0.00599974
-0.00642503
-0.00663863
-0.00664494
-0.00644859
-0.00605452
-0.00546794
-0.00469439
-0.0037397
-0.00261006
-0.00131198
0.000147659
0.00176161
0.00352225
0.00542155
0.00745109
0.00960202
0.0118651
0.0142306
0.0166884
0.0192279
0.0218382
0.0245079
0.0272252
0.0299779
0.0327534
0.0355389
0.0383211
0.0410866
0.0438217
0.0465126
0.0491453
0.051706
0.0541804
0.056555
0.0588158
0.0609496
0.0629433
0.0647841
0.06646
0.0679594
0.0692716
0.0703864
0.0712946
0.071988
0.0724592
0.0727019
0.0727109
0.072482
0.0720123
0.0712995
0.0703429
0.0691425
0.0676994
0.0660154
0.0640931
0.0619358
0.0595473
0.0569319
0.0540923
0.0510314
0.0477767
0.0443513
0.040437
0.0357659
0.0295655
0.0244931
0.0202998
0.0166893
0.0133051
0.0101653
0.00729221
0.00468102
0.00232645
0.000225017
-0.00162686
-0.00323303
-0.00459749
-0.00572442
-0.00661811
-0.00728308
-0.00772399
-0.00794574
-0.0079534
-0.00775227
-0.00734788
-0.00674598
-0.00595258
-0.00497395
-0.00381664
-0.00248749
-0.000993651
0.0006574
0.00245785
0.0043995
0.00647383
0.00867187
0.0109843
0.0134014
0.0159129
0.0185083
0.0211765
0.0239062
0.0266855
0.029502
0.0323433
0.0351963
0.0380476
0.0408838
0.0436908
0.0464547
0.0491613
0.0517962
0.0543452
0.056794
0.0591284
0.0613345
0.0633987
0.0653079
0.0670491
0.0686103
0.0699798
0.0711468
0.0721014
0.0728344
0.0733376
0.0736039
0.0736273
0.0734026
0.0729261
0.0721948
0.071207
0.0699621
0.0684603
0.0667031
0.0646924
0.062431
0.0599226
0.0571712
0.0541794
0.05095
0.0475123
0.0438912
0.03975
0.0348062
0.0297273
0.0243945
0.0199881
0.0161968
0.0126461
0.00935501
0.00634678
0.00361604
0.00115684
-0.00103497
-0.00296372
-0.00463405
-0.00605079
-0.00721892
-0.00814357
-0.00883003
-0.00928375
-0.00951033
-0.00951555
-0.00930534
-0.00888579
-0.00826322
-0.00744409
-0.00643512
-0.00524323
-0.00387559
-0.00233963
-0.00064309
0.00120602
0.00319935
0.00532821
0.00758353
0.00995589
0.0124355
0.015012
0.0176748
0.0204129
0.0232148
0.0260684
0.0289615
0.0318814
0.0348149
0.0377486
0.0406687
0.043561
0.0464113
0.0492051
0.0519277
0.0545644
0.0571005
0.0595214
0.0618126
0.0639598
0.0659493
0.0677676
0.0694017
0.0708394
0.0720688
0.0730793
0.0738608
0.0744043
0.0747017
0.0747461
0.0745316
0.0740533
0.0733077
0.0722923
0.0710056
0.0694472
0.0676179
0.0655194
0.063154
0.060525
0.0576366
0.054491
0.0510915
0.047469
0.0436499
0.0392795
0.0340601
0.0295973
0.0240043
0.0193848
0.0154131
0.0116962
0.00825407
0.0051111
0.00226137
-0.000301726
-0.00258298
-0.00458741
-0.00632042
-0.00778763
-0.00899478
-0.00994781
-0.0106528
-0.0111159
-0.0113434
-0.0113418
-0.0111176
-0.0106776
-0.0100285
-0.00917735
-0.00813123
-0.00689746
-0.00548357
-0.00389729
-0.00214659
-0.00023972
0.0018148
0.00400811
0.00633103
0.008774
0.0113271
0.01398
0.016722
0.019542
0.0224282
0.0253688
0.0283513
0.0313627
0.03439
0.0374193
0.0404368
0.043428
0.0463783
0.0492729
0.0520968
0.0548349
0.0574718
0.0599926
0.0623821
0.0646253
0.0667079
0.0686155
0.0703345
0.0718517
0.0731546
0.0742314
0.0750713
0.0756642
0.0760012
0.0760743
0.0758767
0.0754029
0.0746482
0.0736095
0.0722845
0.0706723
0.068773
0.0665878
0.0641188
0.0613692
0.0583429
0.0550424
0.051471
0.0476613
0.0436418
0.0390389
0.0335398
0.0291601
0.0233062
0.0184735
0.0143211
0.0104381
0.00684533
0.00356817
0.000600224
-0.00206573
-0.00443508
-0.00651355
-0.00830725
-0.00982255
-0.011066
-0.0120442
-0.0127641
-0.0132325
-0.0134565
-0.0134432
-0.0131997
-0.0127333
-0.0120513
-0.0111614
-0.0100709
-0.00878756
-0.00731931
-0.00567417
-0.00386037
-0.00188638
0.00023907
0.00250696
0.00490796
0.00743239
0.0100702
0.012811
0.015644
0.0185579
0.0215409
0.0245811
0.0276658
0.030782
0.0339163
0.0370548
0.0401833
0.0432872
0.0463515
0.0493609
0.0523001
0.0551535
0.0579053
0.0605398
0.0630413
0.0653942
0.0675832
0.0695932
0.0714098
0.0730189
0.074407
0.0755615
0.0764704
0.0771228
0.0775087
0.0776192
0.0774466
0.0769842
0.0762267
0.0751699
0.0738112
0.0721487
0.0701821
0.0679121
0.0653405
0.0624705
0.0593058
0.0558491
0.0521038
0.0481045
0.0438814
0.039042
0.033258
0.0284002
0.022284
0.017237
0.0129038
0.00885455
0.0051114
0.00170066
-0.00138453
-0.00415201
-0.00660778
-0.00875819
-0.0106101
-0.0121706
-0.013447
-0.0144467
-0.0151773
-0.0156465
-0.0158618
-0.0158312
-0.0155624
-0.0150633
-0.0143417
-0.0134057
-0.0122631
-0.0109222
-0.00939115
-0.00767828
-0.00579212
-0.00374139
-0.00153503
0.000817772
0.00330753
0.00592443
0.00865833
0.0114987
0.0144346
0.0174546
0.020547
0.0236996
0.0268996
0.0301338
0.0333886
0.03665
0.0399035
0.043134
0.0463265
0.0494651
0.0525341
0.0555172
0.0583983
0.061161
0.0637889
0.0662656
0.068575
0.0707013
0.0726289
0.074343
0.0758291
0.0770735
0.0780631
0.0787861
0.0792313
0.0793889
0.07925
0.0788072
0.078054
0.0769856
0.0755984
0.07389
0.0718595
0.0695072
0.0668346
0.0638447
0.0605414
0.0569272
0.0530061
0.0488143
0.044384
0.0393033
0.0332278
0.0273015
0.0209208
0.0156584
0.0111434
0.00692783
0.0030345
-0.000509141
-0.00371045
-0.00657788
-0.00911803
-0.0113379
-0.0132451
-0.0148474
-0.0161529
-0.0171698
-0.0179063
-0.018371
-0.0185721
-0.0185182
-0.0182176
-0.0176788
-0.0169102
-0.0159204
-0.0147177
-0.0133107
-0.0117079
-0.00991808
-0.00794999
-0.0058126
-0.00351507
-0.00106679
0.00152262
0.0042432
0.00708467
0.0100364
0.0130873
0.0162259
0.0194403
0.0227182
0.0260467
0.0294124
0.0328015
0.0361997
0.0395922
0.0429638
0.0462989
0.0495814
0.052795
0.0559229
0.0589482
0.061854
0.0646232
0.0672386
0.0696833
0.0719405
0.0739936
0.0758267
0.0774244
0.0787719
0.079855
0.0806607
0.0811767
0.081392
0.0812969
0.0808827
0.080142
0.0790692
0.0776597
0.0759106
0.0738204
0.0713889
0.0686174
0.0655086
0.0620665
0.0582939
0.0541946
0.0498072
0.0451656
0.0398379
0.0334634
0.0258473
0.0191994
0.0137196
0.0090221
0.0046397
0.000596349
-0.00307947
-0.00639562
-0.00936119
-0.0119834
-0.0142698
-0.0162289
-0.0178691
-0.0191993
-0.0202284
-0.0209656
-0.02142
-0.0216006
-0.0215167
-0.0211772
-0.0205913
-0.0197679
-0.018716
-0.0174445
-0.0159625
-0.0142788
-0.0124024
-0.0103424
-0.00810818
-0.00570896
-0.00315435
-0.000454175
0.00238148
0.00534221
0.00841725
0.0115954
0.0148652
0.0182144
0.0216307
0.025101
0.0286119
0.0321491
0.0356983
0.0392444
0.0427718
0.0462644
0.0497058
0.0530791
0.0563671
0.0595523
0.0626169
0.065543
0.0683127
0.0709082
0.0733116
0.0755055
0.0774727
0.0791967
0.0806615
0.0818518
0.0827534
0.0833528
0.0836379
0.0835975
0.0832221
0.0825033
0.0814342
0.0800097
0.078226
0.076081
0.0735741
0.0707062
0.0674799
0.0638992
0.0599669
0.0556872
0.0511007
0.0462432
0.0406621
0.0339798
0.0240203
0.0171018
0.0114025
0.00652111
0.00197133
-0.00222195
-0.00602918
-0.00945875
-0.0125204
-0.0152219
-0.0175717
-0.0195787
-0.0212524
-0.0226024
-0.0236384
-0.0243702
-0.0248079
-0.0249612
-0.0248399
-0.0244539
-0.0238128
-0.0229261
-0.0218034
-0.0204541
-0.0188876
-0.0171132
-0.0151403
-0.0129783
-0.0106366
-0.00812482
-0.0054528
-0.00263049
0.000331874
0.00342376
0.00663428
0.00995217
0.0133657
0.0168628
0.0204308
0.0240565
0.0277263
0.0314259
0.0351405
0.0388547
0.0425528
0.0462181
0.0498339
0.0533827
0.0568468
0.0602078
0.0634474
0.0665468
0.0694872
0.0722498
0.0748158
0.0771666
0.079284
0.08115
0.0827475
0.08406
0.0850719
0.0857685
0.0861362
0.0861629
0.0858376
0.0851509
0.084095
0.0826637
0.0808525
0.0786584
0.0760805
0.0731193
0.0697773
0.0660584
0.0619654
0.0575029
0.0527135
0.0476351
0.0417934
0.0347936
0.0218026
0.0146094
0.00868789
0.00362108
-0.00109684
-0.00544001
-0.00937784
-0.0129193
-0.0160746
-0.0188525
-0.0212619
-0.0233126
-0.0250148
-0.026379
-0.0274158
-0.0281357
-0.0285496
-0.028668
-0.0285016
-0.0280607
-0.0273557
-0.0263968
-0.025194
-0.0237572
-0.0220964
-0.0202211
-0.0181412
-0.0158664
-0.0134064
-0.010771
-0.00797016
-0.00501411
-0.00191318
0.00132196
0.00468032
0.00815053
0.0117208
0.0153789
0.019112
0.0229068
0.0267495
0.0306257
0.0345204
0.0384178
0.0423018
0.0461555
0.0499616
0.053702
0.0573584
0.060912
0.0643435
0.0676332
0.0707615
0.0737085
0.0764543
0.0789792
0.0812637
0.0832886
0.0850353
0.0864861
0.0876239
0.0884327
0.0888975
0.0890047
0.0887421
0.0880992
0.0870669
0.0856381
0.0838072
0.0815707
0.0789271
0.0758763
0.0724208
0.0685643
0.0643098
0.059662
0.0546657
0.0493607
0.0432507
0.0359225
0.0191751
0.0117025
0.00555578
0.000301759
-0.0045852
-0.00907828
-0.0131458
-0.0167973
-0.0200439
-0.0228947
-0.0253596
-0.0274491
-0.0291744
-0.0305467
-0.0315775
-0.0322783
-0.0326607
-0.0327361
-0.0325158
-0.0320111
-0.0312329
-0.030192
-0.0288992
-0.0273648
-0.0255992
-0.0236124
-0.0214147
-0.019016
-0.0164264
-0.0136558
-0.0107145
-0.00761286
-0.00436128
-0.000970567
0.00254817
0.00618348
0.00992348
0.0137558
0.0176676
0.0216455
0.0256754
0.0297428
0.0338323
0.0379281
0.0420136
0.0460716
0.0500842
0.054033
0.0578988
0.0616621
0.0653029
0.0688008
0.072135
0.0752845
0.0782283
0.0809455
0.0834153
0.0856171
0.0875309
0.0891374
0.090418
0.0913553
0.0919328
0.0921354
0.0919495
0.0913632
0.0903662
0.0889502
0.0871087
0.0848374
0.082134
0.0789981
0.0754317
0.0714387
0.0670219
0.0621863
0.0569788
0.0514413
0.0450543
0.037386
0.016118
0.00836083
0.00198527
-0.00345804
-0.00851512
-0.0131582
-0.0173545
-0.0211142
-0.0244491
-0.0273691
-0.0298848
-0.0320078
-0.0337501
-0.0351237
-0.0361411
-0.0368148
-0.0371571
-0.0371805
-0.0368971
-0.0363188
-0.0354574
-0.0343243
-0.0329309
-0.031288
-0.0294066
-0.0272972
-0.0249703
-0.0224362
-0.0197052
-0.0167877
-0.013694
-0.0104346
-0.00701998
-0.00346118
0.000230679
0.00404405
0.00796698
0.0119871
0.0160913
0.0202663
0.0244978
0.0287711
0.0330706
0.0373802
0.0416831
0.0459617
0.0501975
0.0543716
0.0584643
0.0624553
0.0663237
0.0700482
0.0736071
0.0769782
0.0801393
0.083068
0.0857424
0.0881403
0.0902402
0.0920211
0.093463
0.0945465
0.0952538
0.0955681
0.0954743
0.0949588
0.0940101
0.0926186
0.0907768
0.0884793
0.085723
0.0825071
0.0788332
0.0747051
0.0701254
0.0650993
0.0596761
0.0538998
0.0472266
0.0392051
0.0126104
0.00456266
-0.00204567
-0.00768061
-0.012909
-0.0177021
-0.0220262
-0.0258919
-0.0293119
-0.0322969
-0.0348585
-0.037009
-0.0387613
-0.0401287
-0.0411246
-0.0417624
-0.0420555
-0.0420171
-0.0416604
-0.040998
-0.0400425
-0.0388062
-0.0373009
-0.0355381
-0.0335293
-0.0312855
-0.0288175
-0.026136
-0.0232517
-0.020175
-0.0169165
-0.0134868
-0.0098967
-0.00615706
-0.00227916
0.0017254
0.00584463
0.0100661
0.0143767
0.0187629
0.0232106
0.0277046
0.0322295
0.0367687
0.0413051
0.0458208
0.0502969
0.054714
0.0590516
0.0632887
0.0674036
0.071374
0.0751772
0.0787899
0.0821885
0.0853493
0.0882488
0.0908633
0.0931697
0.0951453
0.0967682
0.0980174
0.0988731
0.0993169
0.0993319
0.0989031
0.0980172
0.0966632
0.0948325
0.0925185
0.0897173
0.0864274
0.0826499
0.0783885
0.0736456
0.0684266
0.062783
0.0567611
0.0497917
0.0414031
0.00863012
0.000285274
-0.00656023
-0.0123894
-0.0177905
-0.0227338
-0.0271844
-0.0311538
-0.0346554
-0.0377007
-0.0403023
-0.0424736
-0.0442286
-0.0455815
-0.0465468
-0.0471391
-0.0473727
-0.047262
-0.0468208
-0.046063
-0.0450019
-0.0436504
-0.0420212
-0.0401263
-0.0379779
-0.0355872
-0.0329658
-0.0301245
-0.0270742
-0.0238257
-0.0203898
-0.0167771
-0.0129985
-0.00906511
-0.00498808
-0.000779039
0.00354998
0.0079865
0.0125175
0.0171293
0.0218077
0.0265377
0.0313034
0.0360881
0.0408745
0.0456442
0.050378
0.0550559
0.0596569
0.0641592
0.0685403
0.0727767
0.0768448
0.08072
0.0843775
0.087792
0.0909384
0.0937915
0.0963262
0.0985181
0.100343
0.101779
0.102804
0.103397
0.103539
0.103214
0.102407
0.101105
0.0992984
0.0969789
0.0941418
0.0907848
0.0869085
0.0825161
0.07761
0.0721957
0.0663269
0.0600523
0.052776
0.0440054
0.00415383
-0.00449539
-0.011583
-0.0176093
-0.0231847
-0.0282782
-0.0328541
-0.0369243
-0.0405035
-0.043604
-0.0462393
-0.048424
-0.0501733
-0.0515024
-0.0524272
-0.0529634
-0.0531263
-0.0529316
-0.052394
-0.0515285
-0.0503491
-0.0488697
-0.0471036
-0.0450638
-0.0427626
-0.0402122
-0.0374242
-0.03441
-0.0311807
-0.0277475
-0.0241211
-0.0203124
-0.0163323
-0.0121918
-0.00790238
-0.00347545
0.00107697
0.00574243
0.0105079
0.0153598
0.0202837
0.0252647
0.0302868
0.0353332
0.0403862
0.0454272
0.0504365
0.0553936
0.060277
0.0650641
0.0697315
0.0742549
0.0786093
0.082769
0.0867078
0.0903989
0.0938153
0.0969302
0.0997167
0.102148
0.104199
0.105844
0.10706
0.107823
0.108113
0.107911
0.107201
0.105967
0.104199
0.101886
0.0990234
0.0956073
0.0916377
0.0871174
0.0820485
0.0764365
0.0703377
0.0638027
0.0562084
0.0470398
-0.000843204
-0.00980483
-0.0171399
-0.0233667
-0.0291179
-0.0343618
-0.0390613
-0.0432295
-0.0468817
-0.0500315
-0.0526934
-0.0548833
-0.0566175
-0.0579127
-0.0587859
-0.0592542
-0.0593343
-0.0590427
-0.0583957
-0.0574089
-0.0560977
-0.0544767
-0.05256
-0.0503613
-0.0478936
-0.0451696
-0.0422013
-0.0390006
-0.0355789
-0.0319474
-0.0281171
-0.024099
-0.019904
-0.0155432
-0.0110279
-0.00636946
-0.00157993
0.00332836
0.00834249
0.0134489
0.0186332
0.0238805
0.0291747
0.034499
0.0398354
0.0451651
0.050468
0.0557232
0.0609084
0.0660005
0.0709752
0.0758072
0.0804702
0.0849374
0.089181
0.0931727
0.0968837
0.100285
0.103349
0.106045
0.108346
0.110225
0.111655
0.112612
0.113072
0.113015
0.112421
0.111273
0.109559
0.107268
0.104391
0.100925
0.0968686
0.0922241
0.0869934
0.0811816
0.0748477
0.0680447
0.0601203
0.0505365
-0.0063872
-0.0156701
-0.0232587
-0.0296894
-0.0356183
-0.0410126
-0.0458341
-0.0500967
-0.0538169