/*--------------------------------*- C++ -*----------------------------------*\
  =========                 |
  \\      /  F ield         | OpenFOAM: The Open Source CFD Toolbox
   \\    /   O peration     | Website:  https://openfoam.org
    \\  /    A nd           | Version:  7
     \\/     M anipulation  |
\*---------------------------------------------------------------------------*/
FoamFile
{
    version     2.0;
    format      ascii;
    class       surfaceScalarField;
    location    "0.375";
    object      phi;
}
// * * * * * * * * * * * * * * * * * * * * * * * * * * * * * * * * * * * * * //

dimensions      [0 3 -1 0 0 0 0];

internalField   nonuniform List<scalar> 
12640
(
1.88692e-10
-1.92389e-10
5.55449e-10
-3.66753e-10
8.82928e-10
-3.2748e-10
1.04605e-09
-1.63122e-10
9.82721e-10
6.33281e-11
6.65868e-10
3.16852e-10
8.86224e-11
5.77243e-10
-7.43909e-10
8.3253e-10
-1.81952e-09
1.07561e-09
-3.12176e-09
1.30223e-09
-4.63161e-09
1.50985e-09
-6.32862e-09
1.69701e-09
-8.19155e-09
1.86293e-09
-1.01989e-08
2.00732e-09
-1.23291e-08
2.13018e-09
-1.45608e-08
2.23178e-09
-1.68733e-08
2.31251e-09
-1.92462e-08
2.3729e-09
-2.16598e-08
2.41357e-09
-2.4095e-08
2.4352e-09
-2.65335e-08
2.43851e-09
-2.89578e-08
2.42426e-09
-3.1351e-08
2.39325e-09
-3.36973e-08
2.34626e-09
-3.59814e-08
2.28412e-09
-3.81891e-08
2.20766e-09
-4.03068e-08
2.11771e-09
-4.23219e-08
2.01509e-09
-4.42226e-08
1.90066e-09
-4.59978e-08
1.77526e-09
-4.76376e-08
1.63974e-09
-4.91325e-08
1.49494e-09
-5.04743e-08
1.34174e-09
-5.16553e-08
1.181e-09
-5.26689e-08
1.0136e-09
-5.35093e-08
8.40425e-10
-5.41717e-08
6.62378e-10
-5.4652e-08
4.80374e-10
-5.49474e-08
2.95344e-10
-5.50556e-08
1.08233e-10
-5.49756e-08
-7.99925e-11
-5.47073e-08
-2.6835e-10
-5.42515e-08
-4.55839e-10
-5.361e-08
-6.41441e-10
-5.27859e-08
-8.24121e-10
-5.17831e-08
-1.00283e-09
-5.06066e-08
-1.17649e-09
-4.92626e-08
-1.34404e-09
-4.77582e-08
-1.50438e-09
-4.61018e-08
-1.65642e-09
-4.43027e-08
-1.79907e-09
-4.23714e-08
-1.93125e-09
-4.03196e-08
-2.05185e-09
-3.81598e-08
-2.15983e-09
-3.59056e-08
-2.25412e-09
-3.35719e-08
-2.33371e-09
-3.11743e-08
-2.3976e-09
-2.87294e-08
-2.44487e-09
-2.62548e-08
-2.47459e-09
-2.37689e-08
-2.48595e-09
-2.12908e-08
-2.47815e-09
-1.88402e-08
-2.45052e-09
-1.64378e-08
-2.40244e-09
-1.41044e-08
-2.33343e-09
-1.18613e-08
-2.24309e-09
-9.73009e-09
-2.1312e-09
-7.73242e-09
-1.99768e-09
-5.88974e-09
-1.84269e-09
-4.22311e-09
-1.66663e-09
-2.75282e-09
-1.47028e-09
-1.4979e-09
-1.25493e-09
-4.75386e-10
-1.02253e-09
3.00729e-10
-7.76135e-10
8.21241e-10
-5.20512e-10
1.08454e-09
-2.6326e-10
1.10138e-09
-1.67762e-11
9.02831e-10
1.98569e-10
5.54643e-10
3.481e-10
1.84014e-10
3.70437e-10
1.83856e-10
3.65263e-10
-5.5765e-10
8.86142e-10
-8.87641e-10
1.21726e-09
-6.586e-10
1.13548e-09
-8.13443e-11
5.03145e-10
6.9567e-10
-7.53585e-10
1.57359e-09
-2.66388e-09
2.48754e-09
-5.22667e-09
3.39532e-09
-8.42053e-09
4.26947e-09
-1.22104e-08
5.09212e-09
-1.65522e-08
5.85167e-09
-2.1396e-08
6.5408e-09
-2.66881e-08
7.15506e-09
-3.23728e-08
7.69204e-09
-3.83934e-08
8.15077e-09
-4.4693e-08
8.53136e-09
-5.12151e-08
8.83467e-09
-5.79043e-08
9.06215e-09
-6.47064e-08
9.21569e-09
-7.15687e-08
9.29751e-09
-7.84403e-08
9.31009e-09
-8.52721e-08
9.25606e-09
-9.20171e-08
9.13826e-09
-9.86304e-08
8.95958e-09
-1.05069e-07
8.72303e-09
-1.11293e-07
8.43168e-09
-1.17264e-07
8.08864e-09
-1.22946e-07
7.69706e-09
-1.28306e-07
7.26015e-09
-1.33312e-07
6.78111e-09
-1.37935e-07
6.26319e-09
-1.4215e-07
5.70969e-09
-1.45932e-07
5.12391e-09
-1.4926e-07
4.50921e-09
-1.52116e-07
3.86897e-09
-1.54482e-07
3.20663e-09
-1.56345e-07
2.52568e-09
-1.57694e-07
1.82965e-09
-1.58521e-07
1.12215e-09
-1.5882e-07
4.06829e-10
-1.58587e-07
-3.12587e-10
-1.57823e-07
-1.03231e-09
-1.56531e-07
-1.74849e-09
-1.54715e-07
-2.45721e-09
-1.52384e-07
-3.1545e-09
-1.49551e-07
-3.83633e-09
-1.46229e-07
-4.49863e-09
-1.42436e-07
-5.13728e-09
-1.38192e-07
-5.74815e-09
-1.33521e-07
-6.32709e-09
-1.2845e-07
-6.86996e-09
-1.23009e-07
-7.37264e-09
-1.1723e-07
-7.83104e-09
-1.11148e-07
-8.24117e-09
-1.04803e-07
-8.59908e-09
-9.82361e-08
-8.90098e-09
-9.14905e-08
-9.14321e-09
-8.46131e-08
-9.32228e-09
-7.76528e-08
-9.43492e-09
-7.06606e-08
-9.47812e-09
-6.36896e-08
-9.44912e-09
-5.67946e-08
-9.34553e-09
-5.00318e-08
-9.16534e-09
-4.34582e-08
-8.90699e-09
-3.71319e-08
-8.56944e-09
-3.11108e-08
-8.15229e-09
-2.54526e-08
-7.6559e-09
-2.02138e-08
-7.08155e-09
-1.54487e-08
-6.43175e-09
-1.12084e-08
-5.71054e-09
-7.53926e-09
-4.92408e-09
-4.48031e-09
-4.08147e-09
-2.06049e-09
-3.19597e-09
-2.94043e-10
-2.28702e-09
8.26018e-10
-1.38341e-09
1.33738e-09
-5.28177e-10
1.32214e-09
2.13916e-10
9.24641e-10
7.45844e-10
3.70792e-10
9.24527e-10
5.54493e-10
3.30031e-10
-8.87684e-10
6.66065e-10
-1.22368e-09
6.13277e-10
-6.05815e-10
-8.94213e-11
6.21351e-10
-1.61292e-09
2.21917e-09
-4.05647e-09
4.01714e-09
-7.4645e-09
5.89556e-09
-1.1841e-08
7.7718e-09
-1.71605e-08
9.58904e-09
-2.33768e-08
1.13084e-08
-3.04284e-08
1.29033e-08
-3.82439e-08
1.43562e-08
-4.67446e-08
1.56558e-08
-5.58477e-08
1.67951e-08
-6.54677e-08
1.77708e-08
-7.55182e-08
1.85818e-08
-8.59124e-08
1.9229e-08
-9.65649e-08
1.97146e-08
-1.07391e-07
2.00421e-08
-1.1831e-07
2.02158e-08
-1.2924e-07
2.02403e-08
-1.40105e-07
2.01212e-08
-1.50831e-07
1.98642e-08
-1.61347e-07
1.94754e-08
-1.71585e-07
1.8961e-08
-1.81481e-07
1.83277e-08
-1.90974e-07
1.7582e-08
-2.00008e-07
1.67306e-08
-2.08528e-07
1.57806e-08
-2.16486e-07
1.47389e-08
-2.23835e-07
1.36125e-08
-2.30534e-07
1.24085e-08
-2.36545e-07
1.11343e-08
-2.41832e-07
9.79709e-09
-2.46368e-07
8.40431e-09
-2.50125e-07
6.9635e-09
-2.53081e-07
5.48227e-09
-2.5522e-07
3.96837e-09
-2.56527e-07
2.42969e-09
-2.56995e-07
8.74225e-10
-2.56618e-07
-6.8989e-10
-2.55396e-07
-2.25438e-09
-2.53333e-07
-3.81084e-09
-2.5044e-07
-5.35074e-09
-2.46729e-07
-6.86542e-09
-2.42219e-07
-8.34614e-09
-2.36934e-07
-9.78403e-09
-2.30901e-07
-1.11702e-08
-2.24153e-07
-1.24957e-08
-2.16729e-07
-1.37515e-08
-2.0867e-07
-1.49288e-08
-2.00024e-07
-1.60186e-08
-1.90843e-07
-1.70121e-08
-1.81183e-07
-1.79009e-08
-1.71106e-07
-1.86765e-08
-1.60676e-07
-1.93307e-08
-1.49963e-07
-1.98559e-08
-1.39041e-07
-2.02447e-08
-1.27986e-07
-2.04902e-08
-1.16877e-07
-2.05862e-08
-1.05799e-07
-2.05271e-08
-9.48369e-08
-2.0308e-08
-8.40772e-08
-1.99251e-08
-7.36088e-08
-1.93754e-08
-6.35207e-08
-1.86575e-08
-5.39019e-08
-1.77711e-08
-4.48399e-08
-1.67179e-08
-3.64196e-08
-1.55018e-08
-2.8722e-08
-1.41294e-08
-2.18217e-08
-1.26108e-08
-1.5785e-08
-1.09608e-08
-1.06659e-08
-9.20053e-09
-6.5022e-09
-7.35968e-09
-3.30904e-09
-5.48016e-09
-1.07143e-09
-3.62109e-09
2.66541e-10
-1.86628e-09
8.15121e-10
-3.34785e-10
7.54403e-10
8.06578e-10
3.51099e-10
1.32803e-09
9.05522e-10
1.7174e-10
-1.05942e-09
1.0459e-10
-1.15654e-09
-5.88116e-10
8.68928e-11
-2.17035e-09
2.20358e-09
-4.81925e-09
4.86807e-09
-8.64118e-09
7.83907e-09
-1.36856e-08
1.09399e-08
-1.99573e-08
1.40435e-08
-2.7427e-08
1.70588e-08
-3.60396e-08
1.9921e-08
-4.57207e-08
2.25844e-08
-5.63821e-08
2.50176e-08
-6.79256e-08
2.71993e-08
-8.02463e-08
2.91159e-08
-9.32353e-08
3.07598e-08
-1.06781e-07
3.21277e-08
-1.20772e-07
3.32197e-08
-1.35096e-07
3.40386e-08
-1.49643e-07
3.45892e-08
-1.64305e-07
3.48779e-08
-1.78977e-07
3.49124e-08
-1.93557e-07
3.47012e-08
-2.07947e-07
3.42539e-08
-2.22052e-07
3.35804e-08
-2.35782e-07
3.26913e-08
-2.49052e-07
3.15976e-08
-2.6178e-07
3.03105e-08
-2.73891e-07
2.88416e-08
-2.85313e-07
2.72025e-08
-2.9598e-07
2.54054e-08
-3.0583e-07
2.34622e-08
-3.14806e-07
2.13853e-08
-3.22859e-07
1.91872e-08
-3.29943e-07
1.68806e-08
-3.36017e-07
1.44782e-08
-3.41046e-07
1.19931e-08
-3.45003e-07
9.43845e-09
-3.47862e-07
6.82773e-09
-3.49607e-07
4.17454e-09
-3.50225e-07
1.49274e-09
-3.49712e-07
-1.2036e-09
-3.48066e-07
-3.90018e-09
-3.45294e-07
-6.58247e-09
-3.41409e-07
-9.23576e-09
-3.36429e-07
-1.18451e-08
-3.3038e-07
-1.43955e-08
-3.23292e-07
-1.68717e-08
-3.15204e-07
-1.92583e-08
-3.0616e-07
-2.15401e-08
-2.9621e-07
-2.37016e-08
-2.85411e-07
-2.57277e-08
-2.73826e-07
-2.7603e-08
-2.61526e-07
-2.93128e-08
-2.48584e-07
-3.08423e-08
-2.35083e-07
-3.21775e-08
-2.2111e-07
-3.33045e-08
-2.06755e-07
-3.42103e-08
-1.92117e-07
-3.48826e-08
-1.77298e-07
-3.53099e-08
-1.62402e-07
-3.54821e-08
-1.47539e-07
-3.53898e-08
-1.32822e-07
-3.50254e-08
-1.18364e-07
-3.43829e-08
-1.04281e-07
-3.34581e-08
-9.06896e-08
-3.22492e-08
-7.77037e-08
-3.07569e-08
-6.54363e-08
-2.89854e-08
-5.39956e-08
-2.69425e-08
-4.34841e-08
-2.4641e-08
-3.39951e-08
-2.20997e-08
-2.56105e-08
-1.93455e-08
-1.83957e-08
-1.64153e-08
-1.23954e-08
-1.336e-08
-7.6266e-09
-1.02489e-08
-4.07125e-09
-7.17641e-09
-1.66614e-09
-4.27143e-09
-2.91479e-10
-1.70955e-09
2.41941e-10
2.73062e-10
2.07896e-10
1.36216e-09
1.11343e-09
-4.74545e-11
-1.01197e-09
-6.5437e-10
-5.49623e-10
-2.15849e-09
1.59101e-09
-4.80023e-09
4.84532e-09
-8.74373e-09
8.81157e-09
-1.40884e-08
1.31837e-08
-2.0879e-08
1.77306e-08
-2.91161e-08
2.22805e-08
-3.87638e-08
2.67065e-08
-4.97585e-08
3.09156e-08
-6.20144e-08
3.48403e-08
-7.54292e-08
3.84325e-08
-8.98887e-08
4.16587e-08
-1.0527e-07
4.44968e-08
-1.21443e-07
4.69334e-08
-1.38277e-07
4.89618e-08
-1.55638e-07
5.05805e-08
-1.73392e-07
5.17922e-08
-1.91406e-07
5.26029e-08
-2.09549e-07
5.30212e-08
-2.27694e-07
5.30576e-08
-2.45717e-07
5.27245e-08
-2.63499e-07
5.20355e-08
-2.80924e-07
5.10051e-08
-2.97881e-07
4.96491e-08
-3.14267e-07
4.79835e-08
-3.29982e-07
4.60251e-08
-3.44932e-07
4.37913e-08
-3.59029e-07
4.12997e-08
-3.72192e-07
3.85683e-08
-3.84345e-07
3.56154e-08
-3.95419e-07
3.24598e-08
-4.05353e-07
2.91204e-08
-4.14088e-07
2.56163e-08
-4.21577e-07
2.19671e-08
-4.27777e-07
1.81926e-08
-4.32651e-07
1.43128e-08
-4.36172e-07
1.03483e-08
-4.38317e-07
6.31969e-09
-4.39072e-07
2.24811e-09
-4.38431e-07
-1.84504e-09
-4.36393e-07
-5.93803e-09
-4.32967e-07
-1.00088e-08
-4.28167e-07
-1.4035e-08
-4.22018e-07
-1.79941e-08
-4.14551e-07
-2.18632e-08
-4.05803e-07
-2.56192e-08
-3.95823e-07
-2.92391e-08
-3.84663e-07
-3.26996e-08
-3.72387e-07
-3.59776e-08
-3.59065e-07
-3.90501e-08
-3.44774e-07
-4.18942e-08
-3.29599e-07
-4.44877e-08
-3.13632e-07
-4.68086e-08
-2.96974e-07
-4.88357e-08
-2.7973e-07
-5.05486e-08
-2.62012e-07
-5.19278e-08
-2.4394e-07
-5.29552e-08
-2.25636e-07
-5.3614e-08
-2.07229e-07
-5.38891e-08
-1.88851e-07
-5.37674e-08
-1.70638e-07
-5.32381e-08
-1.52729e-07
-5.22927e-08
-1.35261e-07
-5.09261e-08
-1.18373e-07
-4.91366e-08
-1.02204e-07
-4.69266e-08
-8.68852e-08
-4.43037e-08
-7.25466e-08
-4.12812e-08
-5.93076e-08
-3.78799e-08
-4.72777e-08
-3.41296e-08
-3.65516e-08
-3.00717e-08
-2.7205e-08
-2.57619e-08
-1.92899e-08
-2.12751e-08
-1.28283e-08
-1.67105e-08
-7.8046e-09
-1.22e-08
-4.1582e-09
-7.9178e-09
-1.77381e-09
-4.09398e-09
-4.71974e-10
-1.02889e-09
2.11072e-12
8.88063e-10
1.11558e-09
-2.94276e-10
-7.17687e-10
-1.51835e-09
6.74449e-10
-3.94084e-09
4.01351e-09
-7.76087e-09
8.66535e-09
-1.31156e-08
1.41663e-08
-2.00865e-08
2.01546e-08
-2.87057e-08
2.63498e-08
-3.89633e-08
3.25381e-08
-5.08141e-08
3.85573e-08
-6.41841e-08
4.42857e-08
-7.89765e-08
4.96326e-08
-9.5076e-08
5.4532e-08
-1.12354e-07
5.89367e-08
-1.30672e-07
6.28145e-08
-1.49883e-07
6.6145e-08
-1.69838e-07
6.89169e-08
-1.90384e-07
7.11266e-08
-2.11368e-07
7.27761e-08
-2.32638e-07
7.38722e-08
-2.54042e-07
7.44256e-08
-2.75434e-07
7.44499e-08
-2.96671e-07
7.39612e-08
-3.17613e-07
7.29778e-08
-3.38128e-07
7.15195e-08
-3.58086e-07
6.96072e-08
-3.77365e-07
6.72633e-08
-3.95851e-07
6.45107e-08
-4.13433e-07
6.13735e-08
-4.3001e-07
5.78761e-08
-4.45485e-07
5.40435e-08
-4.59771e-07
4.99013e-08
-4.72787e-07
4.54756e-08
-4.84459e-07
4.07928e-08
-4.94723e-07
3.58798e-08
-5.03519e-07
3.0764e-08
-5.108e-07
2.54731e-08
-5.16522e-07
2.00353e-08
-5.20653e-07
1.44793e-08
-5.23168e-07
8.83409e-09
-5.24049e-07
3.12928e-09
-5.23289e-07
-2.60514e-09
-5.20888e-07
-8.33872e-09
-5.16856e-07
-1.40406e-08
-5.11212e-07
-1.96795e-08
-5.03982e-07
-2.52239e-08
-4.95204e-07
-3.06418e-08
-4.84922e-07
-3.59011e-08
-4.73191e-07
-4.09696e-08
-4.60076e-07
-4.58149e-08
-4.45648e-07
-5.04049e-08
-4.29991e-07
-5.47076e-08
-4.13194e-07
-5.86913e-08
-3.95356e-07
-6.23251e-08
-3.76586e-07
-6.55788e-08
-3.56999e-07
-6.84229e-08
-3.36718e-07
-7.08295e-08
-3.15874e-07
-7.27719e-08
-2.94604e-07
-7.42252e-08
-2.73051e-07
-7.51668e-08
-2.51364e-07
-7.55762e-08
-2.29695e-07
-7.5436e-08
-2.08202e-07
-7.47319e-08
-1.87041e-07
-7.34533e-08
-1.66373e-07
-7.15941e-08
-1.46357e-07
-6.91532e-08
-1.27148e-07
-6.61354e-08
-1.08899e-07
-6.25527e-08
-9.17548e-08
-5.84251e-08
-7.58519e-08
-5.37828e-08
-6.13132e-08
-4.86683e-08
-4.82456e-08
-4.31392e-08
-3.67357e-08
-3.72719e-08
-2.68444e-08
-3.11664e-08
-1.86018e-08
-2.49531e-08
-1.20012e-08
-1.88006e-08
-6.99256e-09
-1.29264e-08
-3.47592e-09
-7.6106e-09
-1.29539e-09
-3.20949e-09
-2.32893e-10
-1.74505e-10
8.8272e-10
-5.50574e-10
-1.67113e-10
-2.42973e-09
2.5536e-09
-5.83053e-09
7.41432e-09
-1.09009e-08
1.37357e-08
-1.77418e-08
2.10072e-08
-2.64083e-08
2.88211e-08
-3.69131e-08
3.68546e-08
-4.9231e-08
4.4856e-08
-6.33036e-08
5.26299e-08
-7.90447e-08
6.00268e-08
-9.63451e-08
6.69331e-08
-1.15077e-07
7.3264e-08
-1.35098e-07
7.8958e-08
-1.56256e-07
8.39719e-08
-1.78388e-07
8.82774e-08
-2.01329e-07
9.18582e-08
-2.2491e-07
9.47076e-08
-2.48961e-07
9.68265e-08
-2.73311e-07
9.82225e-08
-2.97794e-07
9.89079e-08
-3.22243e-07
9.88996e-08
-3.465e-07
9.82178e-08
-3.70407e-07
9.68854e-08
-3.93816e-07
9.49278e-08
-4.16581e-07
9.23722e-08
-4.38565e-07
8.92473e-08
-4.59637e-07
8.55832e-08
-4.79675e-07
8.14112e-08
-4.98562e-07
7.67633e-08
-5.16191e-07
7.16725e-08
-5.32462e-07
6.61724e-08
-5.47284e-07
6.02976e-08
-5.60575e-07
5.40829e-08
-5.72259e-07
4.75639e-08
-5.82271e-07
4.07768e-08
-5.90557e-07
3.37585e-08
-5.97068e-07
2.65462e-08
-6.01766e-07
1.91779e-08
-6.04624e-07
1.16921e-08
-6.05623e-07
4.12814e-09
-6.04754e-07
-3.47441e-09
-6.02017e-07
-1.10752e-08
-5.97425e-07
-1.86334e-08
-5.90996e-07
-2.61076e-08
-5.82764e-07
-3.34561e-08
-5.72769e-07
-4.06368e-08
-5.61063e-07
-4.76073e-08
-5.47708e-07
-5.4325e-08
-5.32775e-07
-6.07474e-08
-5.16348e-07
-6.68321e-08
-4.98519e-07
-7.25371e-08
-4.79389e-07
-7.78209e-08
-4.59071e-07
-8.2643e-08
-4.37686e-07
-8.69635e-08
-4.15365e-07
-9.07444e-08
-3.92245e-07
-9.3949e-08
-3.68475e-07
-9.65427e-08
-3.44206e-07
-9.84933e-08
-3.19602e-07
-9.97716e-08
-2.94826e-07
-1.00352e-07
-2.70052e-07
-1.00211e-07
-2.45452e-07
-9.93317e-08
-2.21204e-07
-9.77014e-08
-1.97485e-07
-9.53131e-08
-1.74471e-07
-9.21667e-08
-1.52337e-07
-8.82699e-08
-1.3125e-07
-8.36397e-08
-1.11371e-07
-7.83038e-08
-9.28507e-08
-7.2303e-08
-7.58257e-08
-6.56934e-08
-6.04152e-08
-5.85497e-08
-4.67172e-08
-5.09698e-08
-3.48044e-08
-4.30793e-08
-2.47186e-08
-3.50389e-08
-1.64672e-08
-2.70521e-08
-1.00173e-08
-1.93763e-08
-5.29273e-09
-1.23352e-08
-2.17028e-09
-6.33196e-09
-4.78742e-10
-1.8661e-09
4.03981e-10
-8.06475e-10
6.39363e-10
-3.35371e-09
5.10082e-09
-7.76031e-09
1.18209e-08
-1.41189e-08
2.00943e-08
-2.24884e-08
2.93768e-08
-3.28923e-08
3.92249e-08
-4.53184e-08
4.92808e-08
-5.97217e-08
5.92593e-08
-7.60274e-08
6.89356e-08
-9.41346e-08
7.8134e-08
-1.1392e-07
8.67189e-08
-1.35244e-07
9.45873e-08
-1.57949e-07
1.01663e-07
-1.81869e-07
1.07892e-07
-2.06829e-07
1.13237e-07
-2.32648e-07
1.17677e-07
-2.59142e-07
1.21201e-07
-2.86125e-07
1.2381e-07
-3.13413e-07
1.2551e-07
-3.40821e-07
1.26316e-07
-3.68171e-07
1.26249e-07
-3.95285e-07
1.25332e-07
-4.21994e-07
1.23594e-07
-4.48131e-07
1.21065e-07
-4.73539e-07
1.1778e-07
-4.98066e-07
1.13774e-07
-5.21568e-07
1.09086e-07
-5.4391e-07
1.03753e-07
-5.64964e-07
9.78171e-08
-5.84611e-07
9.13194e-08
-6.02741e-07
8.43026e-08
-6.19254e-07
7.68102e-08
-6.34058e-07
6.88865e-08
-6.47071e-07
6.05768e-08
-6.58221e-07
5.1927e-08
-6.67446e-07
4.29839e-08
-6.74695e-07
3.37949e-08
-6.79925e-07
2.44083e-08
-6.83107e-07
1.48732e-08
-6.84218e-07
5.23929e-09
-6.83249e-07
-4.44293e-09
-6.80202e-07
-1.41223e-08
-6.75089e-07
-2.37468e-08
-6.67932e-07
-3.32642e-08
-6.58767e-07
-4.26213e-08
-6.47639e-07
-5.17648e-08
-6.34605e-07
-6.0641e-08
-6.19734e-07
-6.91961e-08
-6.03105e-07
-7.73762e-08
-5.8481e-07
-8.51278e-08
-5.64949e-07
-9.23979e-08
-5.43636e-07
-9.91342e-08
-5.20993e-07
-1.05285e-07
-4.97155e-07
-1.10802e-07
-4.72264e-07
-1.15635e-07
-4.46473e-07
-1.1974e-07
-4.19944e-07
-1.23072e-07
-3.92844e-07
-1.25593e-07
-3.6535e-07
-1.27265e-07
-3.37645e-07
-1.28057e-07
-3.09915e-07
-1.27941e-07
-2.82352e-07
-1.26895e-07
-2.55148e-07
-1.24906e-07
-2.28496e-07
-1.21964e-07
-2.02591e-07
-1.18073e-07
-1.77619e-07
-1.13241e-07
-1.53766e-07
-1.07493e-07
-1.31206e-07
-1.00864e-07
-1.10103e-07
-9.34055e-08
-9.06084e-08
-8.51882e-08
-7.28538e-08
-7.63043e-08
-5.69509e-08
-6.68728e-08
-4.29858e-08
-5.70444e-08
-3.10163e-08
-4.70084e-08
-2.10677e-08
-3.70008e-08
-1.313e-08
-2.7314e-08
-7.15609e-09
-1.83091e-08
-3.06115e-09
-1.04269e-08
-7.25216e-10
-4.20206e-09
-3.21252e-10
-1.05688e-09
1.69625e-09
-4.27003e-09
8.31396e-09
-9.68833e-09
1.72392e-08
-1.73487e-08
2.77546e-08
-2.72657e-08
3.92938e-08
-3.94271e-08
5.13864e-08
-5.37926e-08
6.36462e-08
-7.02937e-08
7.57604e-08
-8.88361e-08
8.7478e-08
-1.09302e-07
9.86e-08
-1.31553e-07
1.0897e-07
-1.55435e-07
1.18468e-07
-1.80776e-07
1.27005e-07
-2.07398e-07
1.34514e-07
-2.3511e-07
1.4095e-07
-2.63719e-07
1.46286e-07
-2.93027e-07
1.50509e-07
-3.22834e-07
1.53617e-07
-3.52941e-07
1.55617e-07
-3.83151e-07
1.56526e-07
-4.13269e-07
1.56367e-07
-4.43106e-07
1.55169e-07
-4.72478e-07
1.52965e-07
-5.01206e-07
1.49793e-07
-5.29118e-07
1.45693e-07
-5.56052e-07
1.40708e-07
-5.81852e-07
1.34885e-07
-6.06369e-07
1.28271e-07
-6.29467e-07
1.20915e-07
-6.51017e-07
1.12869e-07
-6.70899e-07
1.04184e-07
-6.89004e-07
9.49151e-08
-7.05233e-07
8.51154e-08
-7.19497e-07
7.48409e-08
-7.31718e-07
6.41483e-08
-7.41829e-07
5.3095e-08
-7.49774e-07
4.17397e-08
-7.55507e-07
3.01416e-08
-7.58995e-07
1.83613e-08
-7.60216e-07
6.45991e-09
-7.59158e-07
-5.50028e-09
-7.55824e-07
-1.74563e-08
-7.50227e-07
-2.93443e-08
-7.42391e-07
-4.10998e-08
-7.32355e-07
-5.26576e-08
-7.20167e-07
-6.39522e-08
-7.05891e-07
-7.49176e-08
-6.89599e-07
-8.54877e-08
-6.71379e-07
-9.55967e-08
-6.51328e-07
-1.05179e-07
-6.29557e-07
-1.14169e-07
-6.06187e-07
-1.22503e-07
-5.81353e-07
-1.3012e-07
-5.55198e-07
-1.36957e-07
-5.27878e-07
-1.42956e-07
-4.99556e-07
-1.48061e-07
-4.70408e-07
-1.52221e-07
-4.40614e-07
-1.55386e-07
-4.10367e-07
-1.57513e-07
-3.79861e-07
-1.58562e-07
-3.49299e-07
-1.58502e-07
-3.18887e-07
-1.57308e-07
-2.88831e-07
-1.54961e-07
-2.59342e-07
-1.51454e-07
-2.30626e-07
-1.46789e-07
-2.02886e-07
-1.40981e-07
-1.76321e-07
-1.34058e-07
-1.5112e-07
-1.26065e-07
-1.27462e-07
-1.17064e-07
-1.05511e-07
-1.0714e-07
-8.54129e-08
-9.64022e-08
-6.72949e-08
-8.49907e-08
-5.12596e-08
-7.30797e-08
-3.7383e-08
-6.0885e-08
-2.57122e-08
-4.86715e-08
-1.62638e-08
-3.67624e-08
-9.02334e-09
-2.55496e-08
-3.94713e-09
-1.55031e-08
-9.66973e-10
-7.18221e-09
-1.28824e-09
-1.2994e-09
2.99565e-09
-5.16751e-09
1.21821e-08
-1.15897e-08
2.36614e-08
-2.0549e-08
3.67139e-08
-3.20151e-08
5.07598e-08
-4.59384e-08
6.53097e-08
-6.22475e-08
7.99554e-08
-8.08483e-08
9.43612e-08
-1.01624e-07
1.08254e-07
-1.24439e-07
1.21415e-07
-1.49137e-07
1.33668e-07
-1.75548e-07
1.44879e-07
-2.03487e-07
1.54944e-07
-2.3276e-07
1.63787e-07
-2.63165e-07
1.71355e-07
-2.94493e-07
1.77615e-07
-3.26535e-07
1.82551e-07
-3.59077e-07
1.86159e-07
-3.91907e-07
1.88447e-07
-4.24815e-07
1.89434e-07
-4.57594e-07
1.89147e-07
-4.90042e-07
1.87617e-07
-5.21962e-07
1.84886e-07
-5.53165e-07
1.80996e-07
-5.83467e-07
1.75995e-07
-6.12693e-07
1.69935e-07
-6.40677e-07
1.62869e-07
-6.67263e-07
1.54856e-07
-6.92302e-07
1.45954e-07
-7.15656e-07
1.36223e-07
-7.37199e-07
1.25727e-07
-7.56813e-07
1.14529e-07
-7.74392e-07
1.02695e-07
-7.89842e-07
9.02908e-08
-8.03079e-07
7.73851e-08
-8.14031e-07
6.40467e-08
-8.22637e-07
5.0346e-08
-8.2885e-07
3.63544e-08
-8.32633e-07
2.21443e-08
-8.33962e-07
7.78949e-09
-8.32827e-07
-6.63549e-09
-8.29229e-07
-2.10549e-08
-8.23181e-07
-3.53923e-08
-8.1471e-07
-4.95701e-08
-8.03858e-07
-6.35103e-08
-7.90676e-07
-7.71342e-08
-7.75231e-07
-9.03628e-08
-7.57601e-07
-1.03117e-07
-7.3788e-07
-1.15318e-07
-7.16172e-07
-1.26887e-07
-6.92595e-07
-1.37746e-07
-6.67278e-07
-1.4782e-07
-6.40365e-07
-1.57033e-07
-6.12009e-07
-1.65312e-07
-5.82376e-07
-1.72589e-07
-5.51641e-07
-1.78797e-07
-5.19989e-07
-1.83872e-07
-4.87617e-07
-1.87759e-07
-4.54725e-07
-1.90404e-07
-4.21524e-07
-1.91763e-07
-3.88229e-07
-1.91798e-07
-3.55059e-07
-1.90478e-07
-3.22236e-07
-1.87784e-07
-2.89982e-07
-1.83708e-07
-2.58519e-07
-1.78252e-07
-2.28064e-07
-1.71436e-07
-1.98829e-07
-1.63292e-07
-1.71019e-07
-1.53875e-07
-1.44825e-07
-1.43257e-07
-1.20428e-07
-1.31537e-07
-9.79894e-08
-1.18841e-07
-7.76524e-08
-1.05328e-07
-5.95383e-08
-9.11938e-08
-4.37444e-08
-7.66789e-08
-3.03421e-08
-6.20738e-08
-1.93769e-08
-4.77276e-08
-1.08691e-08
-3.40575e-08
-4.81666e-09
-2.15555e-08
-1.20145e-09
-1.07974e-08
-2.48969e-09
-1.53314e-09
4.52879e-09
-6.04066e-09
1.66896e-08
-1.34507e-08
3.10715e-08
-2.36956e-08
4.69588e-08
-3.67008e-08
6.37649e-08
-5.23787e-08
8.09877e-08
-7.06258e-08
9.82024e-08
-9.132e-08
1.15055e-07
-1.14321e-07
1.31255e-07
-1.39472e-07
1.46565e-07
-1.66599e-07
1.60795e-07
-1.95513e-07
1.73794e-07
-2.26017e-07
1.85448e-07
-2.57901e-07
1.95671e-07
-2.90949e-07
2.04403e-07
-3.2494e-07
2.11607e-07
-3.59651e-07
2.17261e-07
-3.94856e-07
2.21363e-07
-4.3033e-07
2.23921e-07
-4.65852e-07
2.24956e-07
-5.01203e-07
2.24498e-07
-5.3617e-07
2.22584e-07
-5.70544e-07
2.1926e-07
-6.04125e-07
2.14577e-07
-6.3672e-07
2.08589e-07
-6.68143e-07
2.01358e-07
-6.98219e-07
1.92945e-07
-7.26781e-07
1.83419e-07
-7.53674e-07
1.72847e-07
-7.78752e-07
1.61301e-07
-8.01879e-07
1.48855e-07
-8.22933e-07
1.35583e-07
-8.41801e-07
1.21563e-07
-8.58382e-07
1.06872e-07
-8.72589e-07
9.15915e-08
-8.84344e-07
7.5802e-08
-8.93584e-07
5.95863e-08
-9.00259e-07
4.30286e-08
-9.04329e-07
2.62142e-08
-9.05769e-07
9.22973e-09
-9.04567e-07
-7.83696e-09
-9.00725e-07
-2.48968e-08
-8.94258e-07
-4.18598e-08
-8.85193e-07
-5.86348e-08
-8.73573e-07
-7.51301e-08
-8.59454e-07
-9.12532e-08
-8.42906e-07
-1.06911e-07
-8.24012e-07
-1.22011e-07
-8.02868e-07
-1.36461e-07
-7.79588e-07
-1.50168e-07
-7.54293e-07
-1.63041e-07
-7.27123e-07
-1.7499e-07
-6.98226e-07
-1.85929e-07
-6.67767e-07
-1.95772e-07
-6.35919e-07
-2.04437e-07
-6.02868e-07
-2.11848e-07
-5.6881e-07
-2.1793e-07
-5.33951e-07
-2.22618e-07
-4.98505e-07
-2.2585e-07
-4.62693e-07
-2.27575e-07
-4.26744e-07
-2.27747e-07
-3.90889e-07
-2.26333e-07
-3.55362e-07
-2.2331e-07
-3.20401e-07
-2.18669e-07
-2.86239e-07
-2.12414e-07
-2.53108e-07
-2.04566e-07
-2.21236e-07
-1.95165e-07
-1.90839e-07
-1.84272e-07
-1.62126e-07
-1.7197e-07
-1.35292e-07
-1.58371e-07
-1.10516e-07
-1.43616e-07
-8.79607e-08
-1.27883e-07
-6.77668e-08
-1.11388e-07
-5.00547e-08
-9.4391e-08
-3.49223e-08
-7.72062e-08
-2.24453e-08
-6.02045e-08
-1.26796e-08
-4.38232e-08
-5.66407e-09
-2.8571e-08
-1.42767e-09
-1.50338e-08
-3.91736e-09
-1.75809e-09
6.28688e-09
-6.88749e-09
2.1819e-08
-1.52652e-08
3.94492e-08
-2.6776e-08
5.84697e-08
-4.13029e-08
7.82918e-08
-5.87208e-08
9.84056e-08
-7.88929e-08
1.18375e-07
-1.01669e-07
1.37831e-07
-1.26882e-07
1.56469e-07
-1.54354e-07
1.74037e-07
-1.83891e-07
1.90332e-07
-2.15288e-07
2.0519e-07
-2.48329e-07
2.18488e-07
-2.8279e-07
2.30132e-07
-3.18441e-07
2.40054e-07
-3.55049e-07
2.48214e-07
-3.92376e-07
2.54588e-07
-4.30185e-07
2.59172e-07
-4.6824e-07
2.61977e-07
-5.06307e-07
2.63024e-07
-5.44158e-07
2.62349e-07
-5.81568e-07
2.59994e-07
-6.18318e-07
2.5601e-07
-6.54198e-07
2.50457e-07
-6.89005e-07
2.43396e-07
-7.22545e-07
2.34898e-07
-7.54635e-07
2.25035e-07
-7.85099e-07
2.13883e-07
-8.13773e-07
2.01522e-07
-8.40506e-07
1.88034e-07
-8.65155e-07
1.73504e-07
-8.87591e-07
1.58019e-07
-9.07695e-07
1.41667e-07
-9.25363e-07
1.2454e-07
-9.40502e-07
1.0673e-07
-9.53031e-07
8.83312e-08
-9.62884e-07
6.94391e-08
-9.70006e-07
5.01511e-08
-9.74358e-07
3.05661e-08
-9.75913e-07
1.07844e-08
-9.74657e-07
-9.09244e-09
-9.70593e-07
-2.89613e-08
-9.63735e-07
-4.8718e-08
-9.54112e-07
-6.82573e-08
-9.4177e-07
-8.74729e-08
-9.26765e-07
-1.06258e-07
-9.09171e-07
-1.24505e-07
-8.89075e-07
-1.42107e-07
-8.66579e-07
-1.58957e-07
-8.41798e-07
-1.74948e-07
-8.14863e-07
-1.89976e-07
-7.85918e-07
-2.03936e-07
-7.5512e-07
-2.16727e-07
-7.22638e-07
-2.28253e-07
-6.88657e-07
-2.38418e-07
-6.53371e-07
-2.47134e-07
-6.16986e-07
-2.54316e-07
-5.79716e-07
-2.59887e-07
-5.41788e-07
-2.63779e-07
-5.03433e-07
-2.65929e-07
-4.64892e-07
-2.66288e-07
-4.26408e-07
-2.64817e-07
-3.88228e-07
-2.6149e-07
-3.50602e-07
-2.56295e-07
-3.13778e-07
-2.49238e-07
-2.78001e-07
-2.40343e-07
-2.43513e-07
-2.29654e-07
-2.10547e-07
-2.17238e-07
-1.79326e-07
-2.03191e-07
-1.50063e-07
-1.87634e-07
-1.22955e-07
-1.70724e-07
-9.81841e-08
-1.52654e-07
-7.59138e-08
-1.33658e-07
-5.62887e-08
-1.14016e-07
-3.94342e-08
-9.40607e-08
-2.54573e-08
-7.41814e-08
-1.44489e-08
-5.48317e-08
-6.48749e-09
-3.65324e-08
-1.64564e-09
-1.98757e-08
-5.56299e-09
-1.97473e-09
8.26162e-09
-7.70824e-09
2.75525e-08
-1.70315e-08
4.87725e-08
-2.97857e-08
7.12238e-08
-4.5813e-08
9.43191e-08
-6.49515e-08
1.17544e-07
-8.70314e-08
1.40454e-07
-1.11873e-07
1.62672e-07
-1.39283e-07
1.8388e-07
-1.69061e-07
2.03815e-07
-2.00991e-07
2.22261e-07
-2.34849e-07
2.39048e-07
-2.70402e-07
2.54042e-07
-3.07412e-07
2.67142e-07
-3.45634e-07
2.78276e-07
-3.8482e-07
2.874e-07
-4.24721e-07
2.94489e-07
-4.65087e-07
2.99538e-07
-5.05671e-07
3.02561e-07
-5.46228e-07
3.03581e-07
-5.86519e-07
3.0264e-07
-6.2631e-07
2.99784e-07
-6.65371e-07
2.95072e-07
-7.03485e-07
2.8857e-07
-7.40439e-07
2.8035e-07
-7.76031e-07
2.7049e-07
-8.10069e-07
2.59073e-07
-8.42372e-07
2.46185e-07
-8.72769e-07
2.31918e-07
-9.01099e-07
2.16365e-07
-9.27217e-07
1.99622e-07
-9.50987e-07
1.81788e-07
-9.72286e-07
1.62966e-07
-9.91005e-07
1.43259e-07
-1.00705e-06
1.22771e-07
-1.02033e-06
1.01611e-07
-1.03077e-06
7.9888e-08
-1.03834e-06
5.77128e-08
-1.04297e-06
3.51984e-08
-1.04464e-06
1.24591e-08
-1.04335e-06
-1.03889e-08
-1.03908e-06
-3.32282e-08
-1.03186e-06
-5.59397e-08
-1.02171e-06
-7.84035e-08
-1.00869e-06
-1.00498e-07
-9.92842e-07
-1.22102e-07
-9.74253e-07
-1.43093e-07
-9.53012e-07
-1.63349e-07
-9.29223e-07
-1.82746e-07
-9.03006e-07
-2.01165e-07
-8.74497e-07
-2.18485e-07
-8.43845e-07
-2.34588e-07
-8.11214e-07
-2.49359e-07
-7.7678e-07
-2.62687e-07
-7.40734e-07
-2.74464e-07
-7.0328e-07
-2.84588e-07
-6.64631e-07
-2.92965e-07
-6.25013e-07
-2.99506e-07
-5.8466e-07
-3.04131e-07
-5.43816e-07
-3.06773e-07
-5.02731e-07
-3.07373e-07
-4.61661e-07
-3.05887e-07
-4.20865e-07
-3.02285e-07
-3.80607e-07
-2.96554e-07
-3.41146e-07
-2.88699e-07
-3.02744e-07
-2.78745e-07
-2.65656e-07
-2.66742e-07
-2.30131e-07
-2.52763e-07
-1.9641e-07
-2.36911e-07
-1.64724e-07
-2.19321e-07
-1.35288e-07
-2.0016e-07
-1.08307e-07
-1.79636e-07
-8.39661e-08
-1.57999e-07
-6.24364e-08
-1.35546e-07
-4.38715e-08
-1.12626e-07
-2.84097e-08
-8.96432e-08
-1.61763e-08
-6.70651e-08
-7.28744e-09
-4.54213e-08
-1.85589e-09
-2.53072e-08
-7.41888e-09
-2.18382e-09
1.04454e-08
-8.50444e-09
3.38731e-08
-1.87515e-08
5.90196e-08
-3.27254e-08
8.51978e-08
-5.02301e-08
1.11824e-07
-7.10678e-08
1.38382e-07
-9.5036e-08
1.64423e-07
-1.21925e-07
1.89561e-07
-1.51516e-07
2.13471e-07
-1.83582e-07
2.35881e-07
-2.17887e-07
2.56567e-07
-2.54188e-07
2.75349e-07
-2.92234e-07
2.92088e-07
-3.31769e-07
3.06677e-07
-3.72535e-07
3.19042e-07
-4.14268e-07
3.29134e-07
-4.56708e-07
3.36929e-07
-4.99593e-07
3.42423e-07
-5.42664e-07
3.45631e-07
-5.85665e-07
3.46583e-07
-6.28348e-07
3.45322e-07
-6.70469e-07
3.41904e-07
-7.1179e-07
3.36393e-07
-7.52083e-07
3.28863e-07
-7.91129e-07
3.19397e-07
-8.28719e-07
3.0808e-07
-8.64653e-07
2.95007e-07
-8.98742e-07
2.80275e-07
-9.30811e-07
2.63987e-07
-9.60694e-07
2.46247e-07
-9.88237e-07
2.27166e-07
-1.0133e-06
2.06854e-07
-1.03576e-06
1.85425e-07
-1.0555e-06
1.62998e-07
-1.07242e-06
1.3969e-07
-1.08643e-06
1.15624e-07
-1.09747e-06
9.09213e-08
-1.10546e-06
6.57082e-08
-1.11038e-06
4.01119e-08
-1.11218e-06
1.42613e-08
-1.11085e-06
-1.17126e-08
-1.10641e-06
-3.76774e-08
-1.09885e-06
-6.3499e-08
-1.08821e-06
-8.90419e-08
-1.07454e-06
-1.1417e-07
-1.05789e-06
-1.38745e-07
-1.03836e-06
-1.62629e-07
-1.01602e-06
-1.85685e-07
-9.90993e-07
-2.07775e-07
-9.63396e-07
-2.28762e-07
-9.3337e-07
-2.48511e-07
-9.01069e-07
-2.66888e-07
-8.66663e-07
-2.83765e-07
-8.30336e-07
-2.99014e-07
-7.92283e-07
-3.12516e-07
-7.52716e-07
-3.24156e-07
-7.11856e-07
-3.33824e-07
-6.69939e-07
-3.41423e-07
-6.27207e-07
-3.46863e-07
-5.83915e-07
-3.50065e-07
-5.40323e-07
-3.50965e-07
-4.967e-07
-3.49511e-07
-4.53316e-07
-3.45669e-07
-4.10447e-07
-3.39423e-07
-3.68368e-07
-3.30778e-07
-3.27353e-07
-3.19759e-07
-2.87675e-07
-3.0642e-07
-2.49599e-07
-2.9084e-07
-2.13383e-07
-2.73128e-07
-1.79276e-07
-2.53427e-07
-1.47516e-07
-2.31919e-07
-1.18328e-07
-2.08823e-07
-9.19237e-08
-1.84403e-07
-6.84988e-08
-1.58971e-07
-4.82361e-08
-1.32888e-07
-3.1305e-08
-1.06574e-07
-1.78644e-08
-8.05057e-08
-8.06591e-09
-5.52197e-08
-2.05929e-09
-3.13138e-08
-9.47817e-09
-2.38622e-09
1.28317e-08
-9.27842e-09
4.07653e-08
-2.04286e-08
7.01698e-08
-3.55996e-08
1.00369e-07
-5.45588e-08
1.30783e-07
-7.70739e-08
1.60897e-07
-1.0291e-07
1.90259e-07
-1.31828e-07
2.18479e-07
-1.63582e-07
2.45225e-07
-1.97921e-07
2.70219e-07
-2.34586e-07
2.93231e-07
-2.73312e-07
3.14076e-07
-3.13832e-07
3.32608e-07
-3.55872e-07
3.48717e-07
-3.99158e-07
3.62328e-07
-4.43414e-07
3.7339e-07
-4.88365e-07
3.81879e-07
-5.33738e-07
3.87795e-07
-5.79261e-07
3.91155e-07
-6.2467e-07
3.91993e-07
-6.69706e-07
3.90358e-07
-7.14115e-07
3.86313e-07
-7.57652e-07
3.7993e-07
-8.0008e-07
3.71292e-07
-8.41174e-07
3.6049e-07
-8.80717e-07
3.47622e-07
-9.18502e-07
3.32792e-07
-9.54336e-07
3.16109e-07
-9.88035e-07
2.97686e-07
-1.01943e-06
2.77643e-07
-1.04837e-06
2.561e-07
-1.07469e-06
2.33182e-07
-1.09829e-06
2.09017e-07
-1.11902e-06
1.83736e-07
-1.1368e-06
1.5747e-07
-1.15154e-06
1.30356e-07
-1.16315e-06
1.02531e-07
-1.17157e-06
7.41353e-08
-1.17677e-06
4.53102e-08
-1.17871e-06
1.62002e-08
-1.17737e-06
-1.30488e-08
-1.17276e-06
-4.22889e-08
-1.16489e-06
-7.13704e-08
-1.15379e-06
-1.00142e-07
-1.13951e-06
-1.28452e-07
-1.12211e-06
-1.56146e-07
-1.10167e-06