/*--------------------------------*- C++ -*----------------------------------*\
  =========                 |
  \\      /  F ield         | OpenFOAM: The Open Source CFD Toolbox
   \\    /   O peration     | Website:  https://openfoam.org
    \\  /    A nd           | Version:  7
     \\/     M anipulation  |
\*---------------------------------------------------------------------------*/
FoamFile
{
    version     2.0;
    format      ascii;
    class       volVectorField;
    location    "0.375";
    object      U;
}
// * * * * * * * * * * * * * * * * * * * * * * * * * * * * * * * * * * * * * //

dimensions      [0 1 -1 0 0 0 0];

internalField   nonuniform List<vector> 
6400
(
(7.17223e-06 -7.32507e-06 0)
(2.96861e-05 -1.44835e-05 0)
(5.92345e-05 -1.41884e-05 0)
(8.05682e-05 -9.73823e-06 0)
(8.54218e-05 -3.42832e-06 0)
(7.05596e-05 3.54273e-06 0)
(3.48602e-05 1.05616e-05 0)
(-2.16442e-05 1.73102e-05 0)
(-9.81987e-05 2.36264e-05 0)
(-0.000193614 2.94289e-05 0)
(-0.000306444 3.46792e-05 0)
(-0.000435094 3.93625e-05 0)
(-0.000577882 4.34776e-05 0)
(-0.00073309 4.70313e-05 0)
(-0.000898988 5.00355e-05 0)
(-0.00107386 5.25051e-05 0)
(-0.00125602 5.44575e-05 0)
(-0.00144382 5.59111e-05 0)
(-0.00163565 5.68855e-05 0)
(-0.00182995 5.74007e-05 0)
(-0.00202525 5.74771e-05 0)
(-0.00222009 5.71353e-05 0)
(-0.0024131 5.63959e-05 0)
(-0.00260298 5.52794e-05 0)
(-0.00278848 5.38064e-05 0)
(-0.00296842 5.19972e-05 0)
(-0.00314169 4.9872e-05 0)
(-0.00330724 4.7451e-05 0)
(-0.00346409 4.47541e-05 0)
(-0.00361133 4.18013e-05 0)
(-0.00374812 3.86126e-05 0)
(-0.00387368 3.52078e-05 0)
(-0.0039873 3.16068e-05 0)
(-0.00408835 2.78298e-05 0)
(-0.00417625 2.3897e-05 0)
(-0.00425052 1.98289e-05 0)
(-0.00431071 1.56461e-05 0)
(-0.00435649 1.13697e-05 0)
(-0.00438757 7.02125e-06 0)
(-0.00440374 2.62244e-06 0)
(-0.00440488 -1.80439e-06 0)
(-0.00439094 -6.23649e-06 0)
(-0.00436195 -1.06506e-05 0)
(-0.00431801 -1.50231e-05 0)
(-0.00425932 -1.93297e-05 0)
(-0.00418615 -2.35458e-05 0)
(-0.00409887 -2.76463e-05 0)
(-0.00399792 -3.16059e-05 0)
(-0.00388384 -3.53987e-05 0)
(-0.00375723 -3.89989e-05 0)
(-0.00361882 -4.23802e-05 0)
(-0.00346939 -4.55166e-05 0)
(-0.00330984 -4.83819e-05 0)
(-0.00314112 -5.09503e-05 0)
(-0.00296428 -5.31961e-05 0)
(-0.00278048 -5.50943e-05 0)
(-0.00259091 -5.66204e-05 0)
(-0.00239689 -5.77508e-05 0)
(-0.00219977 -5.84625e-05 0)
(-0.00200099 -5.87339e-05 0)
(-0.00180205 -5.85446e-05 0)
(-0.00160452 -5.78754e-05 0)
(-0.00141001 -5.67091e-05 0)
(-0.00122018 -5.50302e-05 0)
(-0.00103671 -5.28253e-05 0)
(-0.000861336 -5.00831e-05 0)
(-0.000695781 -4.67954e-05 0)
(-0.000541774 -4.29575e-05 0)
(-0.000401025 -3.85691e-05 0)
(-0.000275195 -3.36365e-05 0)
(-0.000165871 -2.81746e-05 0)
(-7.4512e-05 -2.22128e-05 0)
(-2.38738e-06 -1.58044e-05 0)
(4.95344e-05 -9.04706e-06 0)
(8.07597e-05 -2.12044e-06 0)
(9.15546e-05 4.64025e-06 0)
(8.3365e-05 1.06092e-05 0)
(5.97547e-05 1.45913e-05 0)
(2.92305e-05 1.43448e-05 0)
(6.87252e-06 6.86545e-06 0)
(1.44085e-05 -2.9915e-05 0)
(5.14598e-05 -5.15541e-05 0)
(8.9736e-05 -4.40947e-05 0)
(0.000103475 -1.91053e-05 0)
(7.69646e-05 1.5307e-05 0)
(2.3533e-06 5.41168e-05 0)
(-0.000124057 9.42466e-05 0)
(-0.000303183 0.000133809 0)
(-0.000533979 0.000171644 0)
(-0.000814081 0.000207037 0)
(-0.00114025 0.00023955 0)
(-0.00150867 0.00026892 0)
(-0.00191516 0.000295004 0)
(-0.00235533 0.000317736 0)
(-0.00282464 0.000337105 0)
(-0.00331855 0.000353139 0)
(-0.00383251 0.000365895 0)
(-0.00436204 0.00037545 0)
(-0.00490274 0.000381895 0)
(-0.00545034 0.000385334 0)
(-0.00600067 0.000385879 0)
(-0.00654975 0.000383647 0)
(-0.00709373 0.000378761 0)
(-0.00762892 0.000371346 0)
(-0.00815183 0.000361531 0)
(-0.00865912 0.000349445 0)
(-0.00914765 0.00033522 0)
(-0.00961445 0.000318987 0)
(-0.0100567 0.00030088 0)
(-0.010472 0.000281032 0)
(-0.0108577 0.000259579 0)
(-0.0112117 0.000236655 0)
(-0.011532 0.000212397 0)
(-0.0118168 0.000186944 0)
(-0.0120645 0.000160434 0)
(-0.0122737 0.00013301 0)
(-0.0124431 0.000104814 0)
(-0.0125718 7.59916e-05 0)
(-0.012659 4.6691e-05 0)
(-0.0127041 1.70625e-05 0)
(-0.0127068 -1.27406e-05 0)
(-0.0126669 -4.25622e-05 0)
(-0.0125845 -7.22436e-05 0)
(-0.01246 -0.000101623 0)
(-0.012294 -0.000130536 0)
(-0.0120872 -0.000158817 0)
(-0.0118407 -0.000186295 0)
(-0.0115557 -0.000212802 0)
(-0.0112337 -0.000238164 0)
(-0.0108767 -0.000262209 0)
(-0.0104865 -0.000284763 0)
(-0.0100653 -0.000305656 0)
(-0.00961585 -0.000324716 0)
(-0.0091407 -0.000341774 0)
(-0.00864286 -0.000356666 0)
(-0.00812553 -0.00036923 0)
(-0.00759212 -0.000379311 0)
(-0.00704627 -0.000386761 0)
(-0.00649177 -0.00039144 0)
(-0.00593265 -0.000393216 0)
(-0.00537307 -0.00039197 0)
(-0.00481735 -0.000387594 0)
(-0.00426992 -0.000379997 0)
(-0.00373534 -0.000369103 0)
(-0.00321821 -0.000354857 0)
(-0.00272319 -0.000337227 0)
(-0.00225491 -0.000316211 0)
(-0.00181795 -0.000291841 0)
(-0.00141677 -0.000264194 0)
(-0.00105562 -0.00023341 0)
(-0.000738428 -0.00019971 0)
(-0.000468658 -0.000163434 0)
(-0.000249104 -0.000125098 0)
(-8.15969e-05 -8.54928e-05 0)
(3.34359e-05 -4.58465e-05 0)
(9.75833e-05 -8.09716e-06 0)
(0.000115232 2.46664e-05 0)
(9.48524e-05 4.74939e-05 0)
(5.26166e-05 5.25505e-05 0)
(1.43519e-05 2.91931e-05 0)
(1.42699e-05 -5.94562e-05 0)
(4.45172e-05 -8.99242e-05 0)
(6.12127e-05 -6.04745e-05 0)
(3.55487e-05 6.7192e-06 0)
(-5.08431e-05 9.62422e-05 0)
(-0.00020818 0.000197441 0)
(-0.000441795 0.000303084 0)
(-0.000753394 0.000408336 0)
(-0.00114194 0.000509976 0)
(-0.00160443 0.000605858 0)
(-0.00213646 0.000694569 0)
(-0.00273261 0.000775193 0)
(-0.00338685 0.00084716 0)
(-0.00409266 0.000910149 0)
(-0.00484328 0.000964016 0)
(-0.0056318 0.00100874 0)
(-0.00645129 0.00104442 0)
(-0.00729484 0.00107118 0)
(-0.00815564 0.00108926 0)
(-0.00902703 0.00109889 0)
(-0.00990252 0.00110036 0)
(-0.0107758 0.00109398 0)
(-0.0116409 0.00108007 0)
(-0.012492 0.00105896 0)
(-0.0133234 0.00103102 0)
(-0.01413 0.0009966 0)
(-0.0149068 0.000956066 0)
(-0.0156489 0.000909791 0)
(-0.0163521 0.000858151 0)
(-0.0170122 0.000801526 0)
(-0.0176253 0.0007403 0)
(-0.0181881 0.000674863 0)
(-0.0186972 0.000605606 0)
(-0.0191497 0.000532927 0)
(-0.0195432 0.000457228 0)
(-0.0198754 0.000378915 0)
(-0.0201443 0.000298402 0)
(-0.0203484 0.000216108 0)
(-0.0204865 0.000132461 0)
(-0.0205576 4.78941e-05 0)
(-0.0205613 -3.71522e-05 0)
(-0.0204972 -0.000122229 0)
(-0.0203657 -0.00020688 0)
(-0.0201673 -0.000290642 0)
(-0.0199028 -0.000373045 0)
(-0.0195735 -0.000453612 0)
(-0.0191812 -0.000531861 0)
(-0.0187279 -0.000607309 0)
(-0.018216 -0.000679465 0)
(-0.0176483 -0.00074784 0)
(-0.0170281 -0.000811946 0)
(-0.0163589 -0.000871297 0)
(-0.0156447 -0.000925413 0)
(-0.0148899 -0.000973822 0)
(-0.0140992 -0.00101606 0)
(-0.0132776 -0.00105169 0)
(-0.0124305 -0.00108027 0)
(-0.0115636 -0.0011014 0)
(-0.0106829 -0.0011147 0)
(-0.00979476 -0.00111981 0)
(-0.00890565 -0.00111642 0)
(-0.00802233 -0.00110425 0)
(-0.0071517 -0.00108308 0)
(-0.00630082 -0.00105273 0)
(-0.00547681 -0.00101308 0)
(-0.0046868 -0.000964117 0)
(-0.00393786 -0.000905891 0)
(-0.00323694 -0.000838581 0)
(-0.00259069 -0.000762507 0)
(-0.00200539 -0.000678181 0)
(-0.00148673 -0.000586369 0)
(-0.00103959 -0.000488184 0)
(-0.000667755 -0.000385234 0)
(-0.000373468 -0.000279838 0)
(-0.000156907 -0.000175358 0)
(-1.54481e-05 -7.6712e-05 0)
(5.71551e-05 8.90249e-06 0)
(7.19319e-05 7.10542e-05 0)
(4.79739e-05 9.49147e-05 0)
(1.46791e-05 5.97807e-05 0)
(1.00457e-05 -8.11977e-05 0)
(2.038e-05 -0.000104391 0)
(-4.31892e-06 -3.51612e-05 0)
(-9.08212e-05 9.36616e-05 0)
(-0.000257272 0.000259313 0)
(-0.000514616 0.000445249 0)
(-0.000868764 0.000639606 0)
(-0.00132167 0.000834027 0)
(-0.00187217 0.00102266 0)
(-0.00251676 0.00120143 0)
(-0.00325012 0.00136752 0)
(-0.00406567 0.00151902 0)
(-0.00495588 0.00165468 0)
(-0.00591256 0.00177373 0)
(-0.00692714 0.00187576 0)
(-0.00799074 0.00196062 0)
(-0.00909442 0.00202836 0)
(-0.0102292 0.0020792 0)
(-0.0113862 0.00211346 0)
(-0.0125567 0.00213157 0)
(-0.0137321 0.00213403 0)
(-0.0149042 0.00212139 0)
(-0.0160649 0.00209424 0)
(-0.0172065 0.00205321 0)
(-0.0183217 0.00199896 0)
(-0.0194033 0.00193218 0)
(-0.0204448 0.00185355 0)
(-0.0214399 0.00176378 0)
(-0.0223826 0.00166361 0)
(-0.0232674 0.00155377 0)
(-0.0240892 0.00143499 0)
(-0.0248433 0.00130804 0)
(-0.0255255 0.00117368 0)
(-0.0261318 0.00103267 0)
(-0.0266588 0.0008858 0)
(-0.0271036 0.000733868 0)
(-0.0274635 0.000577679 0)
(-0.0277366 0.000418051 0)
(-0.027921 0.000255815 0)
(-0.0280157 9.1817e-05 0)
(-0.02802 -7.30835e-05 0)
(-0.0279336 -0.000238013 0)
(-0.0277567 -0.000402085 0)
(-0.0274901 -0.000564399 0)
(-0.0271351 -0.000724042 0)
(-0.0266933 -0.000880092 0)
(-0.0261672 -0.00103162 0)
(-0.0255593 -0.00117768 0)
(-0.0248731 -0.00131733 0)
(-0.0241122 -0.00144963 0)
(-0.0232811 -0.00157365 0)
(-0.0223844 -0.00168844 0)
(-0.0214276 -0.00179309 0)
(-0.0204163 -0.0018867 0)
(-0.019357 -0.00196839 0)
(-0.0182562 -0.00203731 0)
(-0.0171212 -0.00209265 0)
(-0.0159596 -0.00213365 0)
(-0.0147792 -0.00215958 0)
(-0.0135884 -0.00216981 0)
(-0.0123959 -0.00216375 0)
(-0.0112104 -0.00214091 0)
(-0.0100412 -0.00210089 0)
(-0.00889724 -0.00204342 0)
(-0.00778798 -0.00196834 0)
(-0.00672263 -0.00187568 0)
(-0.0057103 -0.00176564 0)
(-0.00475989 -0.00163865 0)
(-0.00387986 -0.00149546 0)
(-0.0030781 -0.00133717 0)
(-0.0023617 -0.00116539 0)
(-0.00173662 -0.00098238 0)
(-0.00120739 -0.000791286 0)
(-0.000776618 -0.00059648 0)
(-0.000444426 -0.000404041 0)
(-0.000207763 -0.000222437 0)
(-5.96264e-05 -6.3455e-05 0)
(1.1928e-05 5.6725e-05 0)
(2.61035e-05 0.000116171 0)
(1.09035e-05 8.38265e-05 0)
(4.01505e-06 -8.70335e-05 0)
(-1.30198e-05 -7.95145e-05 0)
(-9.19835e-05 4.99704e-05 0)
(-0.000253956 0.000259674 0)
(-0.00051478 0.000520204 0)
(-0.000884902 0.000809504 0)
(-0.0013699 0.00111118 0)
(-0.00197138 0.00141324 0)
(-0.00268778 0.00170697 0)
(-0.00351497 0.00198609 0)
(-0.00444687 0.00224611 0)
(-0.00547586 0.00248389 0)
(-0.00659319 0.00269727 0)
(-0.00778931 0.00288486 0)
(-0.00905409 0.00304584 0)
(-0.010377 0.00317984 0)
(-0.0117475 0.00328682 0)
(-0.0131547 0.00336701 0)
(-0.014588 0.00342085 0)
(-0.0160369 0.00344893 0)
(-0.0174909 0.00345198 0)
(-0.0189401 0.00343084 0)
(-0.0203746 0.00338642 0)
(-0.0217851 0.0033197 0)
(-0.0231626 0.00323169 0)
(-0.0244984 0.00312349 0)
(-0.0257843 0.00299619 0)
(-0.0270127 0.00285092 0)
(-0.0281762 0.00268884 0)
(-0.0292682 0.00251114 0)
(-0.0302823 0.002319 0)
(-0.0312127 0.00211366 0)
(-0.0320542 0.00189633 0)
(-0.032802 0.00166827 0)
(-0.0334519 0.00143075 0)
(-0.0340002 0.00118506 0)
(-0.0344438 0.000932504 0)
(-0.0347801 0.000674413 0)
(-0.0350071 0.000412135 0)
(-0.0351233 0.000147042 0)
(-0.035128 -0.000119475 0)
(-0.0350207 -0.000386 0)
(-0.0348019 -0.000651098 0)
(-0.0344725 -0.000913314 0)
(-0.034034 -0.00117117 0)
(-0.0334887 -0.00142318 0)
(-0.0328392 -0.00166785 0)
(-0.0320891 -0.00190365 0)
(-0.0312423 -0.00212909 0)
(-0.0303036 -0.00234263 0)
(-0.0292782 -0.00254278 0)
(-0.028172 -0.00272804 0)
(-0.0269916 -0.00289695 0)
(-0.025744 -0.00304806 0)
(-0.024437 -0.00317999 0)
(-0.0230787 -0.00329139 0)
(-0.021678 -0.00338098 0)
(-0.0202439 -0.00344755 0)
(-0.0187864 -0.00349 0)
(-0.0173153 -0.00350731 0)
(-0.0158413 -0.00349861 0)
(-0.0143749 -0.00346315 0)
(-0.0129273 -0.00340037 0)
(-0.0115094 -0.00330988 0)
(-0.0101325 -0.00319153 0)
(-0.00880749 -0.00304544 0)
(-0.00754537 -0.00287206 0)
(-0.00635662 -0.0026722 0)
(-0.00525123 -0.00244718 0)
(-0.00423845 -0.0021989 0)
(-0.0033265 -0.00193005 0)
(-0.00252231 -0.00164429 0)
(-0.00183109 -0.00134661 0)
(-0.00125594 -0.00104373 0)
(-0.000797249 -0.000744671 0)
(-0.000452162 -0.000461593 0)
(-0.000213836 -0.000210797 0)
(-7.06186e-05 -1.38889e-05 0)
(-5.24321e-06 0.000100706 0)
(5.25844e-06 9.31156e-05 0)
(-2.66811e-06 -7.37472e-05 0)
(-5.09302e-05 -7.35448e-06 0)
(-0.000191872 0.000205455 0)
(-0.000438723 0.000516304 0)
(-0.000803595 0.000890257 0)
(-0.00129549 0.0013004 0)
(-0.0019189 0.00172614 0)
(-0.00267454 0.002152 0)
(-0.00356008 0.00256637 0)
(-0.00457063 0.00296065 0)
(-0.00569925 0.00332854 0)
(-0.00693736 0.00366548 0)
(-0.00827513 0.00396828 0)
(-0.0097018 0.00423478 0)
(-0.0112059 0.00446364 0)
(-0.0127756 0.00465418 0)
(-0.0143987 0.00480618 0)
(-0.0160629 0.00491987 0)
(-0.0177561 0.00499575 0)
(-0.019466 0.00503459 0)
(-0.0211807 0.00503736 0)
(-0.0228887 0.0050052 0)
(-0.0245786 0.00493938 0)
(-0.0262395 0.00484125 0)
(-0.0278609 0.00471228 0)
(-0.0294327 0.00455398 0)
(-0.0309456 0.00436795 0)
(-0.0323904 0.0041558 0)
(-0.0337588 0.00391921 0)
(-0.0350426 0.00365989 0)
(-0.0362348 0.00337957 0)
(-0.0373284 0.00308001 0)
(-0.0383173 0.00276302 0)
(-0.0391959 0.00243042 0)
(-0.0399594 0.00208406 0)
(-0.0406034 0.00172582 0)
(-0.0411243 0.0013576 0)
(-0.041519 0.000981359 0)
(-0.0417853 0.000599052 0)
(-0.0419213 0.000212685 0)
(-0.0419262 -0.000175711 0)
(-0.0417997 -0.000564073 0)
(-0.0415421 -0.000950308 0)
(-0.0411546 -0.0013323 0)
(-0.040639 -0.0017079 0)
(-0.0399979 -0.00207494 0)
(-0.0392344 -0.00243125 0)
(-0.0383528 -0.00277463 0)
(-0.0373576 -0.00310288 0)
(-0.0362543 -0.00341383 0)
(-0.0350492 -0.00370528 0)
(-0.0337491 -0.00397509 0)
(-0.0323617 -0.00422115 0)
(-0.0308952 -0.00444138 0)
(-0.0293585 -0.00463378 0)
(-0.0277612 -0.00479644 0)
(-0.0261136 -0.00492753 0)
(-0.0244262 -0.00502535 0)
(-0.0227104 -0.00508831 0)
(-0.0209778 -0.00511502 0)
(-0.0192405 -0.00510426 0)
(-0.0175109 -0.00505502 0)
(-0.0158015 -0.00496655 0)
(-0.0141252 -0.00483839 0)
(-0.0124947 -0.00467042 0)
(-0.0109226 -0.00446292 0)
(-0.00942132 -0.00421665 0)
(-0.0080028 -0.00393292 0)
(-0.00667834 -0.00361376 0)
(-0.00545837 -0.00326203 0)
(-0.00435219 -0.00288165 0)
(-0.00336761 -0.00247789 0)
(-0.00251063 -0.00205773 0)
(-0.00178502 -0.00163036 0)
(-0.00119183 -0.00120782 0)
(-0.000728947 -0.000805836 0)
(-0.000390436 -0.000444928 0)
(-0.000165867 -0.000151548 0)
(-4.13321e-05 4.03695e-05 0)
(-1.09869e-06 8.42936e-05 0)
(-9.44528e-06 -4.00921e-05 0)
(-9.05894e-05 0.000116274 0)
(-0.000297591 0.000437548 0)
(-0.000634824 0.00087086 0)
(-0.0011098 0.00137694 0)
(-0.00172938 0.00192481 0)
(-0.00249638 0.0024902 0)
(-0.00341015 0.00305438 0)
(-0.00446722 0.00360301 0)
(-0.00566174 0.00412519 0)
(-0.00698577 0.00461275 0)
(-0.00842977 0.00505966 0)
(-0.00998285 0.00546157 0)
(-0.0116331 0.00581549 0)
(-0.013368 0.00611948 0)
(-0.0151743 0.00637244 0)
(-0.0170386 0.00657396 0)
(-0.0189472 0.00672418 0)
(-0.0208866 0.00682368 0)
(-0.0228432 0.00687337 0)
(-0.0248038 0.00687448 0)
(-0.0267552 0.00682846 0)
(-0.0286848 0.00673694 0)
(-0.0305804 0.00660173 0)
(-0.0324301 0.00642475 0)
(-0.0342227 0.00620802 0)
(-0.0359475 0.00595366 0)
(-0.0375943 0.00566385 0)
(-0.0391535 0.00534086 0)
(-0.0406163 0.00498698 0)
(-0.0419742 0.00460456 0)
(-0.0432196 0.00419601 0)
(-0.0443457 0.00376376 0)
(-0.045346 0.0033103 0)
(-0.0462151 0.00283814 0)
(-0.0469481 0.00234985 0)
(-0.0475408 0.00184803 0)
(-0.0479898 0.00133532 0)
(-0.0482925 0.00081441 0)
(-0.0484471 0.000288021 0)
(-0.0484524 -0.000241078 0)
(-0.048308 -0.000770077 0)
(-0.0480145 -0.00129613 0)
(-0.0475732 -0.00181636 0)
(-0.046986 -0.00232785 0)
(-0.046256 -0.00282765 0)
(-0.0453868 -0.00331282 0)
(-0.044383 -0.00378039 0)
(-0.04325 -0.00422737 0)
(-0.0419939 -0.00465081 0)
(-0.0406216 -0.00504778 0)
(-0.0391411 -0.00541536 0)
(-0.0375609 -0.00575071 0)
(-0.0358903 -0.00605105 0)
(-0.0341394 -0.0063137 0)
(-0.0323189 -0.00653608 0)
(-0.0304403 -0.00671577 0)
(-0.0285156 -0.00685049 0)
(-0.0265574 -0.00693818 0)
(-0.0245788 -0.00697698 0)
(-0.0225934 -0.00696532 0)
(-0.0206149 -0.0069019 0)
(-0.0186575 -0.00678581 0)
(-0.0167352 -0.00661651 0)
(-0.0148625 -0.00639396 0)
(-0.0130531 -0.00611864 0)
(-0.011321 -0.0057917 0)
(-0.00967925 -0.00541505 0)
(-0.00814042 -0.00499149 0)
(-0.00671605 -0.00452496 0)
(-0.00541645 -0.00402074 0)
(-0.0042504 -0.00348579 0)
(-0.0032248 -0.00292915 0)
(-0.00234435 -0.00236249 0)
(-0.00161109 -0.00180073 0)
(-0.00102415 -0.00126295 0)
(-0.000579096 -0.000773441 0)
(-0.000267392 -0.000362769 0)
(-7.93684e-05 -6.92495e-05 0)
(-7.59381e-06 5.59885e-05 0)
(-1.60545e-05 1.41911e-05 0)
(-0.000130434 0.0002932 0)
(-0.000405166 0.000749516 0)
(-0.000835501 0.00132752 0)
(-0.00142391 0.00198477 0)
(-0.00217467 0.00268703 0)
(-0.00308845 0.00340692 0)
(-0.00416284 0.00412287 0)
(-0.00539297 0.00481801 0)
(-0.00677173 0.00547926 0)
(-0.0082901 0.00609664 0)
(-0.00993744 0.00666263 0)
(-0.0117018 0.00717171 0)
(-0.0135702 0.00761999 0)
(-0.015529 0.00800487 0)
(-0.0175638 0.00832482 0)
(-0.01966 0.00857918 0)
(-0.0218028 0.00876797 0)
(-0.0239773 0.00889182 0)
(-0.0261688 0.00895179 0)
(-0.0283627 0.00894935 0)
(-0.0305447 0.00888628 0)
(-0.0327009 0.00876461 0)
(-0.034818 0.00858661 0)
(-0.0368829 0.0083547 0)
(-0.0388832 0.00807145 0)
(-0.0408072 0.00773956 0)
(-0.0426436 0.00736184 0)
(-0.0443819 0.00694118 0)
(-0.0460122 0.00648054 0)
(-0.0475254 0.00598296 0)
(-0.048913 0.00545154 0)
(-0.0501674 0.00488945 0)
(-0.0512816 0.00429988 0)
(-0.0522495 0.00368612 0)
(-0.0530656 0.00305148 0)
(-0.0537255 0.00239934 0)
(-0.0542254 0.00173314 0)
(-0.0545624 0.00105634 0)
(-0.0547344 0.000372505 0)
(-0.0547402 -0.000314792 0)
(-0.0545794 -0.00100191 0)
(-0.0542527 -0.00168515 0)
(-0.0537613 -0.00236079 0)
(-0.0531076 -0.00302506 0)
(-0.0522949 -0.00367415 0)
(-0.0513271 -0.00430424 0)
(-0.0502095 -0.00491149 0)
(-0.0489478 -0.00549208 0)
(-0.0475489 -0.00604218 0)
(-0.0460205 -0.00655801 0)
(-0.0443712 -0.00703584 0)
(-0.0426104 -0.00747201 0)
(-0.0407484 -0.00786295 0)
(-0.0387963 -0.00820524 0)
(-0.0367659 -0.00849558 0)
(-0.0346698 -0.00873088 0)
(-0.0325212 -0.00890826 0)
(-0.0303338 -0.0090251 0)
(-0.0281222 -0.00907909 0)
(-0.025901 -0.00906825 0)
(-0.0236855 -0.00899102 0)
(-0.0214909 -0.00884628 0)
(-0.0193328 -0.00863346 0)
(-0.0172267 -0.00835261 0)
(-0.0151879 -0.00800446 0)
(-0.0132314 -0.0075906 0)
(-0.0113714 -0.00711355 0)
(-0.00962177 -0.00657703 0)
(-0.00799505 -0.00598606 0)
(-0.00650263 -0.00534735 0)
(-0.00515434 -0.00466957 0)
(-0.00395817 -0.00396381 0)
(-0.00291994 -0.00324408 0)
(-0.00204305 -0.00252805 0)
(-0.00132823 -0.00183778 0)
(-0.000772982 -0.00120081 0)
(-0.000371152 -0.000651077 0)
(-0.000117746 -0.000230181 0)
(-1.39512e-05 7.84471e-06 0)
(-2.2386e-05 8.88062e-05 0)
(-0.000169615 0.000523715 0)
(-0.00051221 0.00114253 0)
(-0.00103646 0.00188817 0)
(-0.00173966 0.00271604 0)
(-0.00262322 0.00358941 0)
(-0.00368539 0.00447838 0)
(-0.0049217 0.00535892 0)
(-0.00632558 0.00621194 0)
(-0.00788848 0.00702237 0)
(-0.00960011 0.00777852 0)
(-0.0114487 0.00847144 0)
(-0.0134211 0.00909446 0)
(-0.0155033 0.00964277 0)
(-0.0176805 0.0101131 0)
(-0.0199373 0.0105035 0)
(-0.0222579 0.010813 0)
(-0.0246265 0.0110416 0)
(-0.027027 0.0111897 0)
(-0.0294436 0.0112588 0)
(-0.0318605 0.0112504 0)
(-0.0342625 0.0111668 0)
(-0.0366345 0.0110103 0)
(-0.0389619 0.0107838 0)
(-0.0412309 0.0104901 0)
(-0.043428 0.0101324 0)
(-0.0455403 0.00971408 0)
(-0.0475558 0.00923859 0)
(-0.0494631 0.00870951 0)
(-0.0512515 0.00813053 0)
(-0.052911 0.00750542 0)
(-0.0544326 0.00683805 0)
(-0.0558078 0.00613237 0)
(-0.0570292 0.00539239 0)
(-0.0580901 0.00462219 0)
(-0.0589846 0.00382594 0)
(-0.0597078 0.00300785 0)
(-0.0602557 0.00217221 0)
(-0.0606252 0.00132339 0)
(-0.0608138 0.000465811 0)
(-0.0608204 -0.000396039 0)
(-0.0606446 -0.00125761 0)
(-0.060287 -0.00211429 0)
(-0.0597491 -0.00296141 0)
(-0.0590333 -0.00379428 0)
(-0.0581432 -0.00460814 0)
(-0.0570833 -0.00539824 0)
(-0.055859 -0.00615978 0)
(-0.0544767 -0.00688801 0)
(-0.0529437 -0.00757816 0)
(-0.0512685 -0.00822554 0)
(-0.0494604 -0.0088255 0)
(-0.0475295 -0.00937353 0)
(-0.0454869 -0.00986519 0)
(-0.0433447 -0.0102962 0)
(-0.0411156 -0.0106626 0)
(-0.0388133 -0.0109606 0)
(-0.0364519 -0.0111865 0)
(-0.0340464 -0.0113372 0)
(-0.0316123 -0.0114099 0)
(-0.0291655 -0.0114021 0)
(-0.0267224 -0.0113121 0)
(-0.0242995 -0.0111385 0)
(-0.0219136 -0.0108808 0)
(-0.0195813 -0.0105389 0)
(-0.017319 -0.0101141 0)
(-0.015143 -0.0096083 0)
(-0.0130687 -0.0090247 0)
(-0.0111109 -0.00836793 0)
(-0.00928337 -0.00764416 0)
(-0.00759866 -0.00686149 0)
(-0.00606772 -0.00603029 0)
(-0.00469979 -0.00516357 0)
(-0.00350205 -0.00427761 0)
(-0.00247952 -0.00339249 0)
(-0.00163483 -0.00253295 0)
(-0.000967729 -0.00172922 0)
(-0.0004747 -0.00101788 0)
(-0.000155582 -0.00044289 0)
(-2.00509e-05 -5.99116e-05 0)
(-2.84061e-05 0.000183178 0)
(-0.000207707 0.000807197 0)
(-0.00061736 0.00161637 0)
(-0.00123508 0.00255312 0)
(-0.00205305 0.00357145 0)
(-0.0030697 0.00463284 0)
(-0.00428065 0.00570538 0)
(-0.00567917 0.00676305 0)
(-0.00725679 0.00778481 0)
(-0.00900335 0.00875383 0)
(-0.0109071 0.00965687 0)
(-0.012955 0.0104836 0)
(-0.0151328 0.0112264 0)
(-0.0174252 0.0118795 0)
(-0.0198165 0.0124389 0)
(-0.02229 0.0129023 0)
(-0.024829 0.0132685 0)
(-0.0274166 0.0135371 0)
(-0.0300357 0.013709 0)
(-0.0326694 0.0137854 0)
(-0.035301 0.0137683 0)
(-0.037914 0.0136602 0)
(-0.0404926 0.0134641 0)
(-0.0430213 0.0131831 0)
(-0.045485 0.0128208 0)
(-0.0478695 0.0123809 0)
(-0.0501612 0.0118675 0)
(-0.052347 0.0112847 0)
(-0.0544149 0.0106369 0)
(-0.0563532 0.00992848 0)
(-0.0581516 0.00916407 0)
(-0.0598001 0.00834834 0)
(-0.0612898 0.00748607 0)
(-0.0626128 0.00658214 0)
(-0.0637618 0.00564153 0)
(-0.0647307 0.00466927 0)
(-0.0655141 0.00367051 0)
(-0.0661077 0.00265046 0)
(-0.0665081 0.00161444 0)
(-0.0667129 0.000567807 0)
(-0.0667208 -0.000483965 0)
(-0.0665313 -0.00153535 0)
(-0.066145 -0.00258075 0)
(-0.0655636 -0.00361449 0)
(-0.0647898 -0.00463087 0)
(-0.0638272 -0.00562414 0)
(-0.0626807 -0.0065885 0)
(-0.061356 -0.00751817 0)
(-0.05986 -0.00840736 0)
(-0.0582006 -0.00925034 0)
(-0.0563867 -0.0100414 0)
(-0.0544282 -0.0107749 0)
(-0.0523361 -0.0114455 0)
(-0.0501222 -0.0120477 0)
(-0.0477992 -0.0125766 0)
(-0.0453808 -0.0130271 0)
(-0.0428816 -0.0133947 0)
(-0.0403167 -0.0136752 0)
(-0.037702 -0.0138647 0)
(-0.035054 -0.01396 0)
(-0.0323899 -0.0139582 0)
(-0.0297269 -0.0138571 0)
(-0.0270827 -0.0136551 0)
(-0.0244752 -0.0133518 0)
(-0.0219221 -0.0129473 0)
(-0.019441 -0.0124428 0)
(-0.0170493 -0.011841 0)
(-0.0147635 -0.0111457 0)
(-0.0125997 -0.0103624 0)
(-0.0105726 -0.00949831 0)
(-0.00869612 -0.00856303 0)
(-0.00698244 -0.00756846 0)
(-0.00544221 -0.00652946 0)
(-0.00408418 -0.00546433 0)
(-0.00291516 -0.00439534 0)
(-0.00193993 -0.00334949 0)
(-0.00116068 -0.00235924 0)
(-0.000576636 -0.00146319 0)
(-0.000192426 -0.000706902 0)
(-2.58528e-05 -0.000146758 0)
(-3.41186e-05 0.000296617 0)
(-0.000244531 0.00114252 0)
(-0.000719911 0.00217001 0)
(-0.00142987 0.00332161 0)
(-0.00236168 0.00455057 0)
(-0.00351075 0.00581712 0)
(-0.00487 0.00708783 0)
(-0.00643029 0.00833504 0)
(-0.0081811 0.00953612 0)
(-0.0101105 0.0106727 0)
(-0.0122052 0.0117302 0)
(-0.0144507 0.0126971 0)
(-0.0168316 0.0135647 0)
(-0.0193313 0.0143265 0)
(-0.021933 0.0149779 0)
(-0.024619 0.0155162 0)
(-0.0273716 0.0159397 0)
(-0.0301727 0.0162483 0)
(-0.0330043 0.0164426 0)
(-0.0358485 0.0165241 0)
(-0.0386878 0.0164951 0)
(-0.0415047 0.0163585 0)
(-0.0442825 0.0161176 0)
(-0.0470046 0.0157762 0)
(-0.0496554 0.0153384 0)
(-0.0522197 0.0148086 0)
(-0.0546831 0.0141916 0)
(-0.0570318 0.0134923 0)
(-0.0592531 0.0127157 0)
(-0.0613347 0.0118673 0)
(-0.0632655 0.0109523 0)
(-0.0650351 0.00997632 0)
(-0.0666341 0.00894509 0)
(-0.0680539 0.00786438 0)
(-0.0692871 0.00674009 0)
(-0.0703269 0.00557821 0)
(-0.0711679 0.00438487 0)
(-0.0718054 0.00316626 0)
(-0.0722358 0.00192869 0)
(-0.0724566 0.000678547 0)
(-0.0724662 -0.000577669 0)
(-0.0722643 -0.00183339 0)
(-0.0718515 -0.00308196 0)
(-0.0712295 -0.00431666 0)
(-0.0704012 -0.0055307 0)
(-0.0693704 -0.00671726 0)
(-0.0681421 -0.00786947 0)
(-0.0667226 -0.00898047 0)
(-0.065119 -0.0100434 0)
(-0.0633397 -0.0110515 0)
(-0.0613941 -0.0119979 0)
(-0.0592926 -0.0128761 0)
(-0.0570468 -0.0136796 0)
(-0.0546692 -0.0144021 0)
(-0.0521733 -0.0150376 0)
(-0.0495736 -0.0155803 0)
(-0.0468852 -0.0160248 0)
(-0.0441243 -0.0163661 0)
(-0.0413078 -0.0165999 0)
(-0.038453 -0.016722 0)
(-0.035578 -0.0167294 0)
(-0.0327011 -0.0166193 0)
(-0.0298411 -0.0163903 0)
(-0.0270169 -0.0160414 0)
(-0.0242473 -0.0155731 0)
(-0.021551 -0.0149869 0)
(-0.0189465 -0.0142858 0)
(-0.0164514 -0.0134744 0)
(-0.014083 -0.0125589 0)
(-0.0118574 -0.0115477 0)
(-0.00978955 -0.0104517 0)
(-0.00789327 -0.00928421 0)
(-0.00618067 -0.00806181 0)
(-0.00466223 -0.00680462 0)
(-0.00334671 -0.00553683 0)
(-0.00224118 -0.00428734 0)
(-0.00135035 -0.00309042 0)
(-0.000676242 -0.0019862 0)
(-0.000228089 -0.00102123 0)
(-3.13569e-05 -0.000252049 0)
(-3.95445e-05 0.000428407 0)
(-0.000280053 0.00152832 0)
(-0.000819576 0.00280192 0)
(-0.00162012 0.00419226 0)
(-0.00266427 0.00565224 0)
(-0.00394449 0.0071413 0)
(-0.00545095 0.0086249 0)
(-0.00717204 0.0100741 0)
(-0.00909507 0.011465 0)
(-0.0112062 0.0127779 0)
(-0.0134906 0.0139971 0)
(-0.0159321 0.01511 0)
(-0.018514 0.016107 0)
(-0.0212187 0.0169809 0)
(-0.0240278 0.0177266 0)
(-0.0269229 0.018341 0)
(-0.029885 0.0188222 0)
(-0.0328951 0.0191699 0)
(-0.0359344 0.0193849 0)
(-0.038984 0.0194689 0)
(-0.0420252 0.0194245 0)
(-0.0450401 0.0192549 0)
(-0.0480107 0.018964 0)
(-0.0509201 0.0185561 0)
(-0.0537515 0.0180359 0)
(-0.0564892 0.0174086 0)
(-0.059118 0.0166796 0)
(-0.0616235 0.0158547 0)
(-0.0639922 0.0149398 0)
(-0.0662114 0.0139409 0)
(-0.0682694 0.0128645 0)
(-0.0701552 0.0117169 0)
(-0.0718591 0.0105049 0)
(-0.073372 0.00923517 0)
(-0.074686 0.00791456 0)
(-0.0757941 0.00655012 0)
(-0.0766906 0.00514897 0)
(-0.0773706 0.00371835 0)
(-0.0778302 0.00226562 0)
(-0.0780669 0.00079825 0)
(-0.078079 -0.000676198 0)
(-0.077866 -0.00215005 0)
(-0.0774287 -0.00361555 0)
(-0.0767687 -0.00506485 0)
(-0.0758891 -0.00649005 0)
(-0.0747938 -0.00788318 0)
(-0.0734883 -0.00923625 0)
(-0.0719788 -0.0105413 0)
(-0.070273 -0.0117903 0)
(-0.0683794 -0.0129753 0)
(-0.0663081 -0.0140885 0)
(-0.0640699 -0.0151222 0)
(-0.0616769 -0.0160689 0)
(-0.0591421 -0.0169213 0)
(-0.0564799 -0.0176723 0)
(-0.0537052 -0.0183152 0)
(-0.0508341 -0.018844 0)
(-0.0478835 -0.0192526 0)
(-0.044871 -0.0195361 0)
(-0.041815 -0.0196899 0)
(-0.0387343 -0.0197101 0)
(-0.0356484 -0.0195939 0)
(-0.0325769 -0.0193394 0)
(-0.0295397 -0.0189457 0)
(-0.0265568 -0.0184132 0)
(-0.0236479 -0.0177437 0)
(-0.0208325 -0.0169407 0)
(-0.0181297 -0.0160092 0)
(-0.0155579 -0.0149564 0)
(-0.0131344 -0.0137918 0)
(-0.0108758 -0.0125271 0)
(-0.00879718 -0.0111773 0)
(-0.00691245 -0.00976048 0)
(-0.00523392 -0.00829825 0)
(-0.00377242 -0.00681651 0)
(-0.00253737 -0.00534576 0)
(-0.00153606 -0.00392171 0)
(-0.000773245 -0.00258561 0)
(-0.000262538 -0.00138465 0)
(-3.65835e-05 -0.000375109 0)
(-4.47132e-05 0.000577854 0)
(-0.000314326 0.00196316 0)
(-0.000916333 0.00351038 0)
(-0.00180562 0.00516331 0)
(-0.00296031 0.00687484 0)
(-0.00437004 0.00860396 0)
(-0.00602226 0.0103154 0)
(-0.00790284 0.0119791 0)
(-0.00999687 0.0135703 0)
(-0.0122886 0.0150683 0)
(-0.0147612 0.0164561 0)
(-0.0173973 0.0177206 0)
(-0.0201785 0.0188513 0)
(-0.0230859 0.0198403 0)
(-0.0261001 0.0206822 0)
(-0.0292014 0.0213734 0)
(-0.0323699 0.021912 0)
(-0.0355855 0.0222977 0)
(-0.0388284 0.0225314 0)
(-0.0420789 0.0226149 0)
(-0.0453176 0.0225513 0)
(-0.0485255 0.022344 0)
(-0.051684 0.0219976 0)
(-0.0547753 0.021517 0)
(-0.0577822 0.0209075 0)
(-0.060688 0.0201751 0)
(-0.0634769 0.0193259 0)
(-0.0661341 0.0183665 0)
(-0.0686453 0.0173037 0)
(-0.0709975 0.0161445 0)
(-0.0731783 0.0148961 0)
(-0.0751764 0.013566 0)
(-0.0769814 0.0121618 0)
(-0.0785842 0.0106913 0)
(-0.0799764 0.00916228 0)
(-0.0811507 0.0075829 0)
(-0.0821011 0.00596132 0)
(-0.0828226 0.00430586 0)
(-0.083311 0.002625 0)
(-0.0835637 0.000927295 0)
(-0.083579 -0.000778543 0)
(-0.0833563 -0.00248371 0)
(-0.0828963 -0.00417928 0)
(-0.0822008 -0.00585625 0)
(-0.0812729 -0.00750555 0)
(-0.0801167 -0.00911802 0)
(-0.0787377 -0.0106845 0)
(-0.0771426 -0.0121958 0)
(-0.0753391 -0.0136428 0)
(-0.0733364 -0.0150164 0)
(-0.0711445 -0.0163075 0)
(-0.0687749 -0.0175074 0)
(-0.0662402 -0.0186074 0)
(-0.0635539 -0.0195991 0)
(-0.0607308 -0.0204746 0)
(-0.0577866 -0.0212261 0)
(-0.0547381 -0.0218465 0)
(-0.0516028 -0.0223293 0)
(-0.0483992 -0.0226684 0)
(-0.0451464 -0.0228587 0)
(-0.0418641 -0.022896 0)
(-0.0385728 -0.0227768 0)
(-0.035293 -0.022499 0)
(-0.0320456 -0.0220616 0)
(-0.0288516 -0.021465 0)
(-0.0257319 -0.0207112 0)
(-0.0227072 -0.019804 0)
(-0.0197978 -0.018749 0)
(-0.0170233 -0.0175542 0)
(-0.0144025 -0.0162298 0)
(-0.0119534 -0.0147889 0)
(-0.00969285 -0.0132475 0)
(-0.00763639 -0.011625 0)
(-0.00579831 -0.00994462 0)
(-0.00419163 -0.00823352 0)
(-0.00282813 -0.00652361 0)
(-0.00171768 -0.00485173 0)
(-0.000867661 -0.00325997 0)
(-0.000295837 -0.00179586 0)
(-4.1563e-05 -0.00051529 0)
(-4.96566e-05 0.000744319 0)
(-0.000347451 0.00244563 0)
(-0.00101033 0.00429361 0)
(-0.00198647 0.00623288 0)
(-0.00324982 0.00821658 0)
(-0.00478727 0.0102034 0)
(-0.00658361 0.0121577 0)
(-0.00862219 0.0140487 0)
(-0.0108858 0.0158507 0)
(-0.0133568 0.0175423 0)
(-0.0160164 0.0191059 0)
(-0.0188456 0.0205273 0)
(-0.0218245 0.0217956 0)
(-0.0249329 0.0229025 0)
(-0.0281502 0.0238422 0)
(-0.0314554 0.0246107 0)
(-0.0348275 0.0252063 0)
(-0.0382457 0.0256285 0)
(-0.0416891 0.0258783 0)
(-0.0451371 0.0259581 0)
(-0.0485694 0.0258711 0)
(-0.0519663 0.0256214 0)
(-0.0553086 0.0252139 0)
(-0.0585777 0.0246542 0)
(-0.0617555 0.0239485 0)
(-0.0648251 0.0231034 0)
(-0.0677699 0.0221258 0)
(-0.0705745 0.0210232 0)
(-0.0732242 0.0198032 0)
(-0.0757054 0.0184739 0)
(-0.0780054 0.0170434 0)
(-0.0801124 0.0155201 0)
(-0.0820158 0.0139128 0)
(-0.0837059 0.0122301 0)
(-0.0851741 0.0104811 0)
(-0.086413 0.00867491 0)
(-0.0874162 0.0068208 0)
(-0.0881783 0.00492822 0)
(-0.0886954 0.00300678 0)
(-0.0889645 0.00106621 0)
(-0.0889838 -0.000883633 0)
(-0.0887527 -0.00283275 0)
(-0.0882719 -0.00477102 0)
(-0.0875432 -0.00668825 0)
(-0.0865698 -0.00857413 0)
(-0.0853558 -0.0104183 0)
(-0.083907 -0.0122104 0)
(-0.0822301 -0.0139399 0)
(-0.0803331 -0.0155965 0)
(-0.0782255 -0.01717 0)
(-0.0759176 -0.01865 0)
(-0.0734213 -0.0200266 0)