/*--------------------------------*- C++ -*----------------------------------*\
  =========                 |
  \\      /  F ield         | OpenFOAM: The Open Source CFD Toolbox
   \\    /   O peration     | Website:  https://openfoam.org
    \\  /    A nd           | Version:  7
     \\/     M anipulation  |
\*---------------------------------------------------------------------------*/
FoamFile
{
    version     2.0;
    format      ascii;
    class       surfaceScalarField;
    location    "0.0375";
    object      phi;
}
// * * * * * * * * * * * * * * * * * * * * * * * * * * * * * * * * * * * * * //

dimensions      [0 3 -1 0 0 0 0];

internalField   nonuniform List<scalar> 
50880
(
1.18358e-10
-1.18356e-10
3.67414e-10
-2.49048e-10
6.77992e-10
-3.10578e-10
1.01332e-09
-3.35324e-10
1.35164e-09
-3.38329e-10
1.68057e-09
-3.28927e-10
1.99221e-09
-3.11641e-10
2.27385e-09
-2.81633e-10
2.51916e-09
-2.45318e-10
2.71754e-09
-1.98379e-10
2.86308e-09
-1.45533e-10
2.94964e-09
-8.6555e-11
2.97315e-09
-2.35099e-11
2.93296e-09
4.01867e-11
2.83097e-09
1.01988e-10
2.66668e-09
1.64282e-10
2.4454e-09
2.21282e-10
2.1733e-09
2.72106e-10
1.85796e-09
3.15335e-10
1.50407e-09
3.53889e-10
1.11772e-09
3.86349e-10
7.07184e-10
4.10541e-10
2.79694e-10
4.27491e-10
-1.56987e-10
4.36679e-10
-6.00094e-10
4.43107e-10
-1.04171e-09
4.4162e-10
-1.48032e-09
4.38606e-10
-1.90824e-09
4.27917e-10
-2.32526e-09
4.17018e-10
-2.7263e-09
4.01044e-10
-3.11229e-09
3.86e-10
-3.4839e-09
3.7161e-10
-3.84096e-09
3.57066e-10
-4.18245e-09
3.41484e-10
-4.50806e-09
3.25608e-10
-4.81696e-09
3.08898e-10
-5.10751e-09
2.90553e-10
-5.37702e-09
2.69512e-10
-5.62325e-09
2.46229e-10
-5.84622e-09
2.22968e-10
-6.04747e-09
2.01245e-10
-6.22846e-09
1.80995e-10
-6.3914e-09
1.62942e-10
-6.53916e-09
1.47762e-10
-6.6731e-09
1.33938e-10
-6.7951e-09
1.21996e-10
-6.90826e-09
1.13165e-10
-7.01566e-09
1.07397e-10
-7.12028e-09
1.04623e-10
-7.22485e-09
1.04573e-10
-7.33121e-09
1.0636e-10
-7.43911e-09
1.07893e-10
-7.54889e-09
1.09783e-10
-7.66283e-09
1.13931e-10
-7.78259e-09
1.19761e-10
-7.90964e-09
1.27055e-10
-8.04497e-09
1.35324e-10
-8.18924e-09
1.44269e-10
-8.34298e-09
1.53739e-10
-8.50543e-09
1.62458e-10
-8.67537e-09
1.69941e-10
-8.8517e-09
1.76329e-10
-9.03279e-09
1.81088e-10
-9.21637e-09
1.83577e-10
-9.39988e-09
1.83508e-10
-9.58163e-09
1.81748e-10
-9.76118e-09
1.79557e-10
-9.93817e-09
1.76985e-10
-1.01121e-08
1.73908e-10
-1.02829e-08
1.70818e-10
-1.04508e-08
1.67893e-10
-1.06159e-08
1.65144e-10
-1.07782e-08
1.62247e-10
-1.09365e-08
1.58361e-10
-1.10897e-08
1.53129e-10
-1.12363e-08
1.46637e-10
-1.13749e-08
1.38564e-10
-1.15034e-08
1.28573e-10
-1.16205e-08
1.17088e-10
-1.17252e-08
1.04686e-10
-1.18164e-08
9.11803e-11
-1.18924e-08
7.6037e-11
-1.19517e-08
5.92573e-11
-1.19928e-08
4.11239e-11
-1.20146e-08
2.1745e-11
-1.2016e-08
1.49543e-12
-1.19969e-08
-1.91453e-11
-1.19565e-08
-4.03729e-11
-1.18942e-08
-6.23258e-11
-1.18101e-08
-8.40613e-11
-1.17056e-08
-1.04587e-10
-1.15818e-08
-1.23798e-10
-1.14403e-08
-1.41447e-10
-1.12836e-08
-1.56748e-10
-1.11141e-08
-1.69488e-10
-1.0934e-08
-1.80028e-10
-1.07457e-08
-1.88304e-10
-1.05516e-08
-1.94122e-10
-1.03539e-08
-1.97759e-10
-1.01545e-08
-1.99322e-10
-9.95595e-09
-1.98594e-10
-9.75983e-09
-1.96115e-10
-9.56663e-09
-1.93205e-10
-9.37607e-09
-1.90564e-10
-9.18799e-09
-1.88076e-10
-9.002e-09
-1.85994e-10
-8.81697e-09
-1.85038e-10
-8.6315e-09
-1.85462e-10
-8.4443e-09
-1.87206e-10
-8.25354e-09
-1.9075e-10
-8.05672e-09
-1.96823e-10
-7.85111e-09
-2.05612e-10
-7.63406e-09
-2.17056e-10
-7.40276e-09
-2.31299e-10
-7.15481e-09
-2.47952e-10
-6.88936e-09
-2.65443e-10
-6.60742e-09
-2.81944e-10
-6.31084e-09
-2.96582e-10
-6.00176e-09
-3.09078e-10
-5.68303e-09
-3.18731e-10
-5.35838e-09
-3.24646e-10
-5.03169e-09
-3.26692e-10
-4.70632e-09
-3.25366e-10
-4.38538e-09
-3.20933e-10
-4.07195e-09
-3.13432e-10
-3.76857e-09
-3.0338e-10
-3.47675e-09
-2.91823e-10
-3.19718e-09
-2.79566e-10
-2.93046e-09
-2.66719e-10
-2.67717e-09
-2.53292e-10
-2.43728e-09
-2.39886e-10
-2.21004e-09
-2.27247e-10
-1.99467e-09
-2.15369e-10
-1.791e-09
-2.03671e-10
-1.59909e-09
-1.91908e-10
-1.41866e-09
-1.80431e-10
-1.24886e-09
-1.69795e-10
-1.08852e-09
-1.6034e-10
-9.36466e-10
-1.52053e-10
-7.91612e-10
-1.44853e-10
-6.52929e-10
-1.38685e-10
-5.19917e-10
-1.33014e-10
-3.92887e-10
-1.27032e-10
-2.72356e-10
-1.20532e-10
-1.58616e-10
-1.1374e-10
-5.18695e-11
-1.06745e-10
4.72615e-11
-9.91283e-11
1.37203e-10
-8.99404e-11
2.15485e-10
-7.82824e-11
2.79853e-10
-6.43677e-11
3.2859e-10
-4.87371e-11
3.60183e-10
-3.15934e-11
3.73092e-10
-1.29089e-11
3.66099e-10
6.99268e-12
3.38946e-10
2.71539e-11
2.92388e-10
4.6558e-11
2.27611e-10
6.47772e-11
1.45173e-10
8.24392e-11
5.1593e-11
9.35812e-11
5.15937e-11
1.46651e-10
-2.65005e-10
4.51667e-10
-5.54076e-10
8.56226e-10
-7.15137e-10
1.3131e-09
-7.92199e-10
1.78423e-09
-8.09453e-10
2.23962e-09
-7.84324e-10
2.65648e-09
-7.2851e-10
3.01993e-09
-6.45075e-10
3.31469e-09
-5.40088e-10
3.53214e-09
-4.15827e-10
3.66104e-09
-2.74436e-10
3.69607e-09
-1.21587e-10
3.63218e-09
4.03846e-11
3.46721e-09
2.05143e-10
3.20111e-09
3.68099e-10
2.83964e-09
5.25746e-10
2.38573e-09
6.75199e-10
1.84681e-09
8.11027e-10
1.22991e-09
9.32239e-10
5.45952e-10
1.03785e-09
-1.95102e-10
1.1274e-09
-9.85569e-10
1.20101e-09
-1.8151e-09
1.25703e-09
-2.67568e-09
1.29726e-09
-3.55742e-09
1.32485e-09
-4.45411e-09
1.33831e-09
-5.35728e-09
1.34177e-09
-6.26219e-09
1.33282e-09
-7.16221e-09
1.31703e-09
-8.05427e-09
1.29311e-09
-8.93605e-09
1.26777e-09
-9.80264e-09
1.2382e-09
-1.06552e-08
1.20957e-09
-1.14923e-08
1.17861e-09
-1.23108e-08
1.1441e-09
-1.31083e-08
1.10643e-09
-1.38833e-08
1.06559e-09
-1.46328e-08
1.01899e-09
-1.53547e-08
9.68082e-10
-1.60488e-08
9.17138e-10
-1.6715e-08
8.67385e-10
-1.73538e-08
8.19812e-10
-1.79672e-08
7.76379e-10
-1.85574e-08
7.3794e-10
-1.91264e-08
7.02934e-10
-1.96765e-08
6.72132e-10
-2.02111e-08
6.47709e-10
-2.07331e-08
6.29443e-10
-2.12454e-08
6.16856e-10
-2.17499e-08
6.09109e-10
-2.22484e-08
6.04869e-10
-2.27427e-08
6.02219e-10
-2.32337e-08
6.00775e-10
-2.37223e-08
6.02476e-10
-2.42096e-08
6.07095e-10
-2.46965e-08
6.13944e-10
-2.51841e-08
6.22944e-10
-2.5673e-08
6.3313e-10
-2.61626e-08
6.43377e-10
-2.66522e-08
6.52069e-10
-2.71403e-08
6.5798e-10
-2.76246e-08
6.60715e-10
-2.81029e-08
6.5933e-10
-2.85724e-08
6.53079e-10
-2.9031e-08
6.42156e-10
-2.94769e-08
6.27648e-10
-2.99084e-08
6.10988e-10
-3.03241e-08
5.92768e-10
-3.07234e-08
5.7319e-10
-3.11056e-08
5.53005e-10
-3.14704e-08
5.32655e-10
-3.1817e-08
5.11785e-10
-3.21445e-08
4.89764e-10
-3.2452e-08
4.65813e-10
-3.2738e-08
4.39103e-10
-3.30004e-08
4.09052e-10
-3.32372e-08
3.75389e-10
-3.34467e-08
3.38055e-10
-3.36267e-08
2.97145e-10
-3.37751e-08
2.53048e-10
-3.38901e-08
2.0616e-10
-3.39702e-08
1.56173e-10
-3.40135e-08
1.02576e-10
-3.40183e-08
4.58596e-11
-3.39836e-08
-1.29447e-11
-3.39086e-08
-7.34255e-11
-3.37924e-08
-1.35403e-10
-3.36345e-08
-1.98278e-10
-3.34354e-08
-2.6138e-10
-3.31956e-08
-3.23935e-10
-3.29155e-08
-3.84643e-10
-3.25972e-08
-4.42148e-10
-3.2243e-08
-4.95603e-10
-3.18554e-08
-5.44301e-10
-3.14374e-08
-5.87485e-10
-3.09925e-08
-6.24932e-10
-3.05238e-08
-6.56989e-10
-3.00342e-08
-6.83813e-10
-2.95267e-08
-7.05189e-10
-2.90048e-08
-7.2121e-10
-2.84708e-08
-7.32658e-10
-2.79262e-08
-7.40706e-10
-2.73728e-08
-7.46634e-10
-2.68116e-08
-7.51748e-10
-2.62425e-08
-7.57162e-10
-2.56649e-08
-7.63549e-10
-2.50786e-08
-7.71347e-10
-2.44829e-08
-7.81216e-10
-2.38759e-08
-7.94137e-10
-2.32557e-08
-8.11017e-10
-2.26201e-08
-8.32425e-10
-2.19669e-08
-8.5881e-10
-2.12933e-08
-8.9061e-10
-2.0597e-08
-9.27621e-10
-1.98767e-08
-9.682e-10
-1.91327e-08
-1.00951e-09
-1.83659e-08
-1.04869e-09
-1.75789e-08
-1.08357e-09
-1.67755e-08
-1.11251e-09
-1.59601e-08
-1.13412e-09
-1.51373e-08
-1.14746e-09
-1.43116e-08
-1.15237e-09
-1.34879e-08
-1.14904e-09
-1.26712e-08
-1.13769e-09
-1.18657e-08
-1.11888e-09
-1.10752e-08
-1.09391e-09
-1.03026e-08
-1.0644e-09
-9.55052e-09
-1.03168e-09
-8.82068e-09
-9.96561e-10
-8.11428e-09
-9.59686e-10
-7.43222e-09
-9.21945e-10
-6.77527e-09
-8.84198e-10
-6.14404e-09
-8.46597e-10
-5.53901e-09
-8.08697e-10
-4.96065e-09
-7.7026e-10
-4.40947e-09
-7.3161e-10
-3.88579e-09
-6.93478e-10
-3.38938e-09
-6.5675e-10
-2.91951e-09
-6.21921e-10
-2.47554e-09
-5.88826e-10
-2.05733e-09
-5.56893e-10
-1.66522e-09
-5.25125e-10
-1.29981e-09
-4.92436e-10
-9.61825e-10
-4.58521e-10
-6.52082e-10
-4.23483e-10
-3.7183e-10
-3.86997e-10
-1.22638e-10
-3.48322e-10
9.36795e-11
-3.06258e-10
2.75212e-10
-2.59815e-10
4.20096e-10
-2.09251e-10
5.26845e-10
-1.55488e-10
5.945e-10
-9.92484e-11
6.22949e-10
-4.13571e-11
6.13259e-10
1.66826e-11
5.67676e-10
7.27378e-11
4.89332e-10
1.24902e-10
3.81941e-10
1.72168e-10
2.48247e-10
2.16136e-10
9.76082e-11
2.44221e-10
1.49203e-10
1.98138e-11
-2.8482e-10
1.50188e-10
-6.84441e-10
3.97658e-10
-9.62612e-10
7.11655e-10
-1.10619e-09
1.04234e-09
-1.14013e-09
1.35694e-09
-1.09892e-09
1.62747e-09
-9.9904e-10
1.8379e-09
-8.55505e-10
1.97292e-09
-6.75107e-10
2.02396e-09
-4.66871e-10
1.98623e-09
-2.36714e-10
1.85547e-09
9.1722e-12
1.62838e-09
2.6748e-10
1.30588e-09
5.27643e-10
8.87532e-10
7.86443e-10
3.75588e-10
1.03768e-09
-2.2493e-10
1.27571e-09
-9.10178e-10
1.49627e-09
-1.6747e-09
1.69677e-09
-2.51361e-09
1.87675e-09
-3.41911e-09
2.03291e-09
-4.38462e-09
2.16651e-09
-5.40177e-09
2.27417e-09
-6.46762e-09
2.36311e-09
-7.57081e-09
2.42804e-09
-8.70993e-09
2.47744e-09
-9.87296e-09
2.5048e-09
-1.10607e-08
2.52054e-09
-1.2263e-08
2.51938e-09
-1.34792e-08
2.50929e-09
-1.47025e-08
2.49111e-09
-1.59311e-08
2.46676e-09
-1.71602e-08
2.4387e-09
-1.83859e-08
2.40426e-09
-1.96071e-08
2.36533e-09
-2.08211e-08
2.32046e-09
-2.20237e-08
2.26816e-09
-2.3214e-08
2.20929e-09
-2.4391e-08
2.14507e-09
-2.55521e-08
2.07826e-09
-2.6696e-08
2.01132e-09
-2.78228e-08
1.94655e-09
-2.89315e-08
1.88514e-09
-3.00209e-08
1.8273e-09
-3.10916e-08
1.77363e-09
-3.21445e-08
1.72502e-09
-3.31797e-08
1.68288e-09
-3.41971e-08
1.64689e-09
-3.51972e-08
1.61693e-09
-3.61808e-08
1.59274e-09
-3.71477e-08
1.57173e-09
-3.8098e-08
1.55252e-09
-3.90325e-08
1.53531e-09
-3.99508e-08
1.52075e-09
-4.08528e-08
1.50906e-09
-4.17378e-08
1.49896e-09
-4.26051e-08
1.49026e-09
-4.34543e-08
1.48235e-09
-4.42841e-08
1.47316e-09
-4.50933e-08
1.4613e-09
-4.58809e-08
1.44557e-09
-4.6645e-08
1.42481e-09
-4.73841e-08
1.39838e-09
-4.80966e-08
1.36558e-09
-4.87809e-08
1.32654e-09
-4.9436e-08
1.28272e-09
-5.00602e-08
1.23521e-09
-5.0652e-08
1.18451e-09
-5.12102e-08
1.13143e-09
-5.17338e-08
1.0766e-09
-5.22214e-08
1.02026e-09
-5.26721e-08
9.62446e-10
-5.30848e-08
9.02462e-10
-5.34581e-08
8.39193e-10
-5.37911e-08
7.72081e-10
-5.40828e-08
7.00689e-10
-5.43316e-08
6.2419e-10
-5.45359e-08
5.42403e-10
-5.46949e-08
4.56092e-10
-5.48074e-08
3.65607e-10
-5.48718e-08
2.70583e-10
-5.48867e-08
1.71083e-10
-5.48518e-08
6.76447e-11
-5.47665e-08
-3.944e-11
-5.46298e-08
-1.49629e-10
-5.44415e-08
-2.61715e-10
-5.42021e-08
-3.7488e-10
-5.39114e-08
-4.88961e-10
-5.35697e-08
-6.03079e-10
-5.31781e-08
-7.15487e-10
-5.27379e-08
-8.24905e-10
-5.22496e-08
-9.30453e-10
-5.17146e-08
-1.0306e-09
-5.11351e-08
-1.12381e-09
-5.05129e-08
-1.20965e-09
-4.98496e-08
-1.28818e-09
-4.91476e-08
-1.35901e-09
-4.84095e-08
-1.42191e-09
-4.76373e-08
-1.47736e-09
-4.68327e-08
-1.52584e-09
-4.59977e-08
-1.56771e-09
-4.51342e-08
-1.60415e-09
-4.42437e-08
-1.63715e-09
-4.33272e-08
-1.6683e-09
-4.23859e-08
-1.69844e-09
-4.1421e-08
-1.72845e-09
-4.04328e-08
-1.75951e-09
-3.94214e-08
-1.79266e-09
-3.83869e-08
-1.82858e-09
-3.73299e-08
-1.86806e-09
-3.62502e-08
-1.91209e-09
-3.51478e-08
-1.96127e-09
-3.40229e-08
-2.0155e-09
-3.28766e-08
-2.07392e-09
-3.17101e-08
-2.13468e-09
-3.05247e-08
-2.19488e-09
-2.93222e-08
-2.25116e-09
-2.81052e-08
-2.30058e-09
-2.68767e-08
-2.34104e-09
-2.56398e-08
-2.37099e-09
-2.4398e-08
-2.38931e-09
-2.3155e-08
-2.39538e-09
-2.19149e-08
-2.38914e-09
-2.06816e-08
-2.37092e-09
-1.94589e-08
-2.34159e-09
-1.82503e-08
-2.30255e-09
-1.70592e-08
-2.25546e-09
-1.58891e-08
-2.20182e-09
-1.47428e-08
-2.14283e-09
-1.3623e-08
-2.0795e-09
-1.25321e-08
-2.01284e-09
-1.14726e-08
-1.94372e-09
-1.04467e-08
-1.87242e-09
-9.45663e-09
-1.79882e-09
-8.50398e-09
-1.72291e-09
-7.59044e-09
-1.64514e-09
-6.71766e-09
-1.56626e-09
-5.88731e-09
-1.4871e-09
-5.10097e-09
-1.40826e-09
-4.36015e-09
-1.32964e-09
-3.6663e-09
-1.25075e-09
-3.02077e-09
-1.17066e-09
-2.42484e-09
-1.08836e-09
-1.8799e-09
-1.00345e-09
-1.38741e-09
-9.15971e-10
-9.48746e-10
-8.25664e-10
-5.6513e-10
-7.31938e-10
-2.37457e-10
-6.33932e-10
3.3909e-11
-5.31181e-10
2.4906e-10
-4.24403e-10
4.08723e-10
-3.1515e-10
5.14571e-10
-2.05095e-10
5.6937e-10
-9.61564e-11
5.77085e-10
8.96719e-12
5.42588e-10
1.07236e-10
4.71502e-10
1.95989e-10
3.69639e-10
2.74032e-10
2.41269e-10
3.44506e-10
9.5863e-11
3.8963e-10
2.45066e-10
-7.92418e-11
-2.05583e-10
-1.02972e-10
-6.60703e-10
-6.6782e-12
-1.05892e-09
1.62141e-10
-1.275e-09
3.50175e-10
-1.32818e-09
5.18547e-10
-1.26729e-09
6.3867e-10
-1.11917e-09
6.91888e-10
-9.08718e-10
6.66243e-10
-6.49456e-10
5.53744e-10
-3.5437e-10
3.47393e-10
-3.03662e-11
4.69991e-11
3.09565e-10
-3.48495e-10
6.62975e-10
-8.39538e-10
1.01869e-09
-1.42356e-09
1.37047e-09
-2.09928e-09
1.71341e-09
-2.86473e-09
2.04116e-09
-3.71694e-09
2.34848e-09
-4.65262e-09
2.63245e-09
-5.66571e-09
2.88984e-09
-6.75338e-09
3.12058e-09
-7.91022e-09
3.32336e-09
-9.13391e-09
3.49786e-09
-1.04152e-08
3.64442e-09
-1.17521e-08
3.76494e-09
-1.31368e-08
3.86212e-09
-1.45661e-08
3.93413e-09
-1.60341e-08
3.98847e-09
-1.75363e-08
4.0216e-09
-1.90685e-08
4.04154e-09
-2.06239e-08
4.04643e-09
-2.22e-08
4.04288e-09
-2.379e-08
4.02867e-09
-2.5392e-08
4.00633e-09
-2.70006e-08
3.97395e-09
-2.8613e-08
3.93283e-09
-3.02276e-08
3.88271e-09
-3.18409e-08
3.82265e-09
-3.34507e-08
3.75488e-09
-3.50551e-08
3.68258e-09
-3.66511e-08
3.60735e-09
-3.82358e-08
3.53126e-09
-3.98073e-08
3.4566e-09
-4.1364e-08
3.38409e-09
-4.29047e-08
3.31432e-09
-4.44272e-08
3.24752e-09
-4.59292e-08
3.18487e-09
-4.74095e-08
3.12714e-09
-4.88661e-08
3.07357e-09
-5.02974e-08
3.02399e-09
-5.17026e-08
2.97694e-09
-5.30812e-08
2.93115e-09
-5.44326e-08
2.88666e-09
-5.57547e-08
2.84291e-09
-5.70458e-08
2.80017e-09
-5.8305e-08
2.75813e-09
-5.95305e-08
2.71579e-09
-6.07207e-08
2.67257e-09
-6.18741e-08
2.62655e-09
-6.29889e-08
2.57607e-09
-6.40639e-08
2.52059e-09
-6.50979e-08
2.45882e-09
-6.60894e-08
2.38984e-09
-6.70374e-08
2.31362e-09
-6.79411e-08
2.23023e-09
-6.87989e-08
2.14054e-09
-6.96095e-08
2.04578e-09
-7.03714e-08
1.94638e-09
-7.1083e-08
1.84303e-09
-7.17432e-08
1.73686e-09
-7.23508e-08
1.62782e-09
-7.29037e-08
1.51534e-09
-7.34007e-08
1.39942e-09
-7.38412e-08
1.27971e-09
-7.42242e-08
1.15512e-09
-7.45486e-08
1.02505e-09
-7.48138e-08
8.89444e-10
-7.50195e-08
7.4809e-10
-7.51643e-08
6.00886e-10
-7.52472e-08
4.48465e-10
-7.5268e-08
2.91427e-10
-7.52265e-08
1.29588e-10
-7.51219e-08
-3.69426e-11
-7.49544e-08
-2.07013e-10
-7.47244e-08
-3.79623e-10
-7.44317e-08
-5.54428e-10
-7.4076e-08
-7.30532e-10
-7.36586e-08
-9.06392e-10
-7.31807e-08
-1.081e-09
-7.26425e-08
-1.2536e-09
-7.20448e-08
-1.42265e-09
-7.13889e-08
-1.58631e-09
-7.0676e-08
-1.74351e-09
-6.99064e-08
-1.8934e-09
-6.90813e-08
-2.03474e-09
-6.82028e-08
-2.16677e-09
-6.7272e-08
-2.28975e-09
-6.629e-08
-2.40393e-09
-6.52584e-08
-2.50894e-09
-6.41795e-08
-2.60482e-09
-6.30544e-08
-2.69274e-09
-6.18843e-08
-2.77431e-09
-6.06708e-08
-2.85064e-09
-5.94163e-08
-2.92277e-09
-5.81226e-08
-2.99214e-09
-5.67908e-08
-3.06021e-09
-5.54226e-08
-3.12779e-09
-5.40197e-08
-3.1955e-09
-5.2584e-08
-3.26431e-09
-5.11167e-08
-3.33531e-09
-4.96198e-08
-3.40903e-09
-4.80956e-08
-3.48544e-09
-4.65469e-08
-3.56425e-09
-4.49761e-08
-3.64466e-09
-4.3386e-08
-3.72478e-09
-4.17794e-08
-3.80156e-09
-4.01588e-08
-3.87169e-09
-3.85271e-08
-3.93237e-09
-3.68866e-08
-3.98146e-09
-3.52404e-08
-4.01718e-09
-3.35916e-08
-4.03811e-09
-3.19436e-08
-4.0434e-09
-3.02998e-08
-4.03296e-09
-2.86635e-08
-4.00717e-09
-2.70383e-08
-3.96683e-09
-2.54278e-08
-3.91308e-09
-2.38359e-08
-3.84735e-09
-2.22666e-08
-3.7711e-09
-2.07237e-08
-3.6857e-09
-1.92109e-08
-3.59233e-09
-1.77318e-08
-3.49194e-09
-1.62902e-08
-3.38528e-09
-1.48898e-08
-3.27285e-09
-1.35338e-08
-3.15487e-09
-1.22251e-08
-3.03161e-09
-1.09666e-08
-2.90361e-09
-9.76138e-09
-2.77147e-09
-8.61255e-09
-2.63593e-09
-7.52316e-09
-2.49765e-09
-6.49612e-09
-2.35668e-09
-5.53422e-09
-2.21265e-09
-4.63988e-09
-2.06501e-09
-3.81515e-09
-1.91309e-09
-3.06187e-09
-1.75673e-09
-2.38166e-09
-1.59618e-09
-1.77593e-09
-1.4314e-09
-1.24568e-09
-1.26218e-09
-7.91165e-10
-1.08845e-09
-4.11646e-10
-9.10701e-10
-1.05549e-10
-7.30499e-10
1.29547e-10
-5.50245e-10
2.9713e-10
-3.72679e-10
4.01843e-10
-2.00869e-10
4.49498e-10
-3.86881e-11
4.46997e-10
1.09736e-10
4.01798e-10
2.41187e-10
3.21209e-10
3.54622e-10
2.11776e-10
4.53941e-10
8.44625e-11
5.16946e-10
3.29528e-10
-1.45135e-10
-6.04505e-11
-2.80241e-10
-5.25597e-10
-2.95653e-10
-1.0435e-09
-2.4235e-10
-1.32831e-09
-1.7464e-10
-1.39588e-09
-1.33332e-10
-1.3086e-09
-1.44316e-10
-1.10818e-09
-2.29734e-10
-8.23302e-10
-4.00167e-10
-4.79029e-10
-6.65733e-10
-8.88017e-11
-1.02847e-09
3.32372e-10
-1.49176e-09
7.72852e-10
-2.05553e-09
1.22674e-09
-2.71917e-09
1.68232e-09
-3.48188e-09
2.13317e-09
-4.34077e-09
2.5723e-09
-5.29404e-09
2.99443e-09
-6.33885e-09
3.39329e-09
-7.47437e-09
3.76797e-09
-8.69536e-09
4.11082e-09
-1.00006e-08
4.42583e-09
-1.13831e-08
4.70584e-09
-1.28418e-08
4.95655e-09
-1.43706e-08
5.17325e-09
-1.59684e-08
5.36274e-09
-1.76246e-08
5.5183e-09
-1.93407e-08
5.6502e-09
-2.11063e-08
5.75411e-09
-2.29208e-08
5.83615e-09
-2.47775e-08
5.89816e-09
-2.66707e-08
5.93964e-09
-2.85953e-08
5.96755e-09
-3.05461e-08
5.9794e-09
-3.25182e-08
5.97847e-09
-3.45078e-08
5.96357e-09
-3.65103e-08
5.93528e-09
-3.8522e-08
5.89445e-09
-4.05409e-08
5.84159e-09
-4.25642e-08
5.77812e-09
-4.45875e-08
5.70586e-09
-4.66074e-08
5.62727e-09
-4.86208e-08
5.5447e-09
-5.06239e-08
5.45966e-09
-5.26126e-08
5.37279e-09
-5.45843e-08
5.28602e-09
-5.6537e-08
5.20023e-09
-5.8467e-08
5.11487e-09
-6.03708e-08
5.03099e-09
-6.22456e-08
4.94838e-09
-6.40885e-08
4.86682e-09
-6.58973e-08
4.78579e-09
-6.76701e-08
4.70387e-09
-6.94048e-08
4.62141e-09
-7.10999e-08
4.53796e-09
-7.27522e-08
4.45254e-09
-7.43596e-08
4.36555e-09
-7.592e-08
4.27616e-09
-7.74308e-08
4.18333e-09
-7.88902e-08
4.08598e-09
-8.02966e-08
3.98246e-09
-8.16481e-08
3.87212e-09
-8.29435e-08
3.7542e-09
-8.41813e-08
3.62762e-09
-8.53603e-08
3.49261e-09
-8.64798e-08
3.34977e-09
-8.75384e-08
3.19915e-09
-8.85342e-08
3.04157e-09
-8.9466e-08
2.8782e-09
-9.03325e-08
2.70951e-09
-9.11317e-08
2.53601e-09
-9.1862e-08
2.3582e-09
-9.25226e-08
2.17589e-09
-9.31116e-08
1.98848e-09
-9.36277e-08
1.79576e-09
-9.40704e-08
1.59782e-09
-9.44394e-08
1.39407e-09
-9.47336e-08
1.18367e-09
-9.49525e-08
9.66974e-10
-9.50964e-08
7.44776e-10
-9.51647e-08
5.16802e-10
-9.51563e-08
2.83004e-10
-9.50714e-08
4.46184e-11
-9.49108e-08
-1.97449e-10
-9.46747e-08
-4.43197e-10
-9.43625e-08
-6.91785e-10
-9.39754e-08
-9.41528e-10
-9.35144e-08
-1.19157e-09
-9.29793e-08
-1.44142e-09
-9.23709e-08
-1.68939e-09
-9.1691e-08
-1.93357e-09
-9.09404e-08
-2.17319e-09
-9.01192e-08
-2.4075e-09
-8.92282e-08
-2.63457e-09
-8.8269e-08
-2.85259e-09
-8.72426e-08
-3.06116e-09
-8.6149e-08
-3.26032e-09
-8.49895e-08
-3.44928e-09
-8.37661e-08
-3.62734e-09
-8.24802e-08
-3.79485e-09
-8.11324e-08
-3.95257e-09
-7.97242e-08
-4.10097e-09
-7.82578e-08
-4.24069e-09
-7.67353e-08
-4.37307e-09
-7.51585e-08
-4.49964e-09
-7.35292e-08
-4.6214e-09
-7.18504e-08
-4.73904e-09
-7.01247e-08
-4.85348e-09
-6.83543e-08
-4.96586e-09
-6.65417e-08
-5.07698e-09
-6.46899e-08
-5.1871e-09
-6.28025e-08
-5.29638e-09
-6.0883e-08
-5.40496e-09
-5.89347e-08
-5.51252e-09
-5.69616e-08
-5.61779e-09
-5.49678e-08
-5.71856e-09
-5.29571e-08
-5.81222e-09
-5.09327e-08
-5.89614e-09
-4.88973e-08
-5.96776e-09
-4.68541e-08
-6.02465e-09
-4.48065e-08
-6.06481e-09
-4.27577e-08
-6.08687e-09
-4.0711e-08
-6.09008e-09
-3.86698e-08
-6.07417e-09
-3.66377e-08
-6.03926e-09
-3.46186e-08
-5.98594e-09
-3.26165e-08
-5.91524e-09
-3.06354e-08
-5.82841e-09
-2.86799e-08
-5.72664e-09
-2.67545e-08
-5.61108e-09
-2.48639e-08
-5.48291e-09
-2.30127e-08
-5.34314e-09
-2.12054e-08
-5.19254e-09
-1.94466e-08
-5.03167e-09
-1.77406e-08
-4.86093e-09
-1.60914e-08
-4.68075e-09
-1.45032e-08
-4.49179e-09
-1.298e-08
-4.29472e-09
-1.15258e-08
-4.09014e-09
-1.01447e-08
-3.87872e-09
-8.84064e-09
-3.66074e-09
-7.61719e-09
-3.43609e-09
-6.47754e-09
-3.20466e-09
-5.42434e-09
-2.96629e-09
-4.45991e-09
-2.72117e-09
-3.58612e-09
-2.46997e-09
-2.80433e-09
-2.21319e-09
-2.11531e-09
-1.9512e-09
-1.51891e-09
-1.68485e-09
-1.01379e-09
-1.41582e-09
-5.97606e-10
-1.14669e-09
-2.67071e-10
-8.80781e-10
-1.76889e-11
-6.22061e-10
1.5637e-10
-3.74928e-10
2.62114e-10
-1.44432e-10
3.07736e-10
6.41145e-11
3.01901e-10
2.47022e-10
2.53457e-10
4.03065e-10
1.71409e-10
5.35989e-10
6.89484e-11
6.19407e-10
3.98478e-10
-1.88612e-10
1.28167e-10
-4.04419e-10
-3.09796e-10
-5.08523e-10
-9.39395e-10
-5.52423e-10
-1.28441e-09
-5.8803e-10
-1.36028e-09
-6.58673e-10
-1.23796e-09
-7.92121e-10
-9.74735e-10
-1.00724e-09
-6.08177e-10
-1.31618e-09
-1.7009e-10
-1.72751e-09
3.22528e-10
-2.24364e-09
8.48503e-10
-2.87098e-09
1.4002e-09
-3.60404e-09
1.9598e-09
-4.44668e-09
2.52497e-09
-5.39476e-09
3.08125e-09
-6.44808e-09
3.62562e-09
-7.60374e-09
4.15009e-09
-8.86069e-09
4.65024e-09
-1.02139e-08
5.12122e-09
-1.16639e-08
5.56082e-09
-1.32042e-08
5.96608e-09
-1.48347e-08
6.33638e-09
-1.65492e-08
6.67103e-09
-1.83454e-08
6.96945e-09
-2.02164e-08
7.23378e-09
-2.21617e-08
7.46359e-09
-2.41739e-08
7.66233e-09
-2.62481e-08
7.82839e-09
-2.8381e-08
7.96902e-09
-3.0564e-08
8.08115e-09
-3.27959e-08
8.17155e-09
-3.50671e-08
8.23868e-09
-3.73743e-08
8.28666e-09
-3.97107e-08
8.31482e-09
-4.20716e-08
8.32453e-09
-4.44532e-08
8.3169e-09
-4.68506e-08
8.29184e-09
-4.92597e-08
8.25067e-09
-5.16767e-08
8.1951e-09
-5.40978e-08
8.12699e-09
-5.65191e-08
8.04853e-09
-5.89353e-08
7.96094e-09
-6.13419e-08
7.86626e-09
-6.37353e-08
7.76613e-09
-6.61106e-08
7.66137e-09
-6.84635e-08
7.5531e-09
-7.07901e-08
7.44148e-09
-7.30868e-08
7.32771e-09
-7.53501e-08
7.21161e-09
-7.75752e-08
7.09192e-09
-7.9759e-08
6.96959e-09
-8.18991e-08
6.844e-09
-8.39921e-08
6.71437e-09
-8.6035e-08
6.5809e-09
-8.80253e-08
6.44284e-09
-8.99598e-08
6.30007e-09
-9.18358e-08
6.15214e-09
-9.36502e-08
5.99773e-09
-9.54006e-08
5.83639e-09
-9.70855e-08
5.6673e-09
-9.87025e-08
5.48917e-09
-1.0025e-07
5.30156e-09
-1.01726e-07
5.10417e-09
-1.03131e-07
4.89679e-09
-1.04461e-07
4.67998e-09
-1.05716e-07
4.45435e-09
-1.06895e-07
4.22018e-09
-1.07995e-07
3.97813e-09
-1.09014e-07
3.72938e-09
-1.09953e-07
3.47455e-09
-1.10808e-07
3.21329e-09
-1.11578e-07
2.94571e-09
-1.12262e-07
2.67243e-09
-1.12859e-07
2.39304e-09
-1.13368e-07
2.10666e-09
-1.13788e-07
1.81366e-09
-1.14118e-07
1.51451e-09
-1.1436e-07
1.20867e-09
-1.14512e-07
8.96203e-10
-1.14573e-07
5.78244e-10
-1.14545e-07
2.5523e-10
-1.14428e-07
-7.29892e-11
-1.1422e-07
-4.05265e-10
-1.13923e-07
-7.39847e-10
-1.13539e-07
-1.07626e-09
-1.13066e-07
-1.41428e-09
-1.12505e-07
-1.75215e-09
-1.11859e-07
-2.08782e-09
-1.11128e-07
-2.42057e-09
-1.10311e-07
-2.74982e-09
-1.09411e-07
-3.07373e-09
-1.08428e-07
-3.39028e-09
-1.07364e-07
-3.6986e-09
-1.06219e-07
-3.9981e-09
-1.04992e-07
-4.28745e-09
-1.03687e-07
-4.5654e-09
-1.02305e-07
-4.83182e-09
-1.00845e-07
-5.08699e-09
-9.93094e-08
-5.33051e-09
-9.77e-08
-5.56196e-09
-9.60189e-08
-5.78207e-09
-9.42673e-08
-5.99225e-09
-9.24471e-08
-6.19332e-09
-9.05612e-08
-6.38552e-09
-8.8613e-08
-6.56962e-09
-8.6605e-08
-6.74703e-09
-8.45398e-08
-6.91874e-09
-8.24207e-08
-7.08493e-09
-8.0252e-08
-7.24568e-09
-7.80376e-08
-7.40154e-09
-7.5781e-08
-7.55293e-09
-7.34865e-08
-7.69948e-09
-7.11589e-08
-7.84014e-09
-6.88031e-08
-7.97353e-09
-6.64237e-08
-8.09797e-09
-6.40247e-08
-8.21121e-09
-6.16102e-08
-8.31065e-09
-5.91842e-08
-8.3938e-09
-5.67503e-08
-8.45852e-09
-5.43121e-08
-8.50304e-09
-5.1873e-08
-8.52591e-09
-4.9437e-08
-8.52609e-09
-4.7008e-08
-8.50317e-09
-4.459e-08
-8.45725e-09
-4.21872e-08
-8.38879e-09
-3.98039e-08
-8.29848e-09
-3.74451e-08
-8.18724e-09
-3.51157e-08
-8.05605e-09
-3.28209e-08
-7.90592e-09
-3.05659e-08
-7.73792e-09
-2.8356e-08
-7.55301e-09
-2.61966e-08
-7.35191e-09
-2.4093e-08
-7.13527e-09
-2.20503e-08
-6.90364e-09
-2.00735e-08
-6.65754e-09
-1.81676e-08
-6.39771e-09
-1.63374e-08
-6.1249e-09
-1.45879e-08
-5.83972e-09
-1.29237e-08
-5.5429e-09
-1.13494e-08
-5.23501e-09
-9.86923e-09
-4.91626e-09
-8.48692e-09
-4.58697e-09
-7.20557e-09
-4.24765e-09
-6.02779e-09
-3.89895e-09
-4.95577e-09
-3.54199e-09
-3.99104e-09
-3.17792e-09
-3.13426e-09
-2.80799e-09
-2.38495e-09
-2.43415e-09
-1.74145e-09
-2.05933e-09
-1.20101e-09
-1.68713e-09
-7.5998e-10
-1.32181e-09
-4.13414e-10
-9.68629e-10
-1.54885e-10
-6.33459e-10
2.32742e-11
-3.22591e-10
1.29901e-10
-4.25116e-11
1.74777e-10
2.02147e-10
1.68291e-10
4.09552e-10
1.21442e-10
5.82839e-10
4.99667e-11
6.90882e-10
4.48445e-10
-2.19526e-10
3.47693e-10
-4.92696e-10
-3.66201e-11
-6.66496e-10
-7.65591e-10
-7.91435e-10
-1.15948e-09
-9.23519e-10
-1.22819e-09
-1.09991e-09
-1.06157e-09
-1.34978e-09
-7.24866e-10
-1.69046e-09
-2.67502e-10
-2.13606e-09
2.75517e-10
-2.69276e-09
8.79221e-10
-3.3665e-09
1.52225e-09
-4.1558e-09
2.1895e-09
-5.06474e-09
2.86873e-09
-6.09024e-09
3.55048e-09
-7.23187e-09
4.22287e-09
-8.48836e-09
4.88212e-09
-9.85569e-09
5.51741e-09
-1.13334e-08
6.128e-09
-1.29176e-08
6.70534e-09
-1.46069e-08
7.25013e-09
-1.63967e-08
7.7559e-09
-1.82853e-08
8.22493e-09
-2.02661e-08
8.65192e-09
-2.23387e-08
9.04203e-09
-2.44957e-08
9.39077e-09
-2.67353e-08
9.70319e-09
-2.90491e-08
9.97612e-09
-3.1436e-08
1.02152e-08
-3.38879e-08
1.0421e-08
-3.63999e-08
1.05931e-08
-3.89664e-08
1.0738e-08
-4.15801e-08
1.08525e-08
-4.42365e-08
1.0943e-08
-4.69295e-08
1.10078e-08
-4.96529e-08
1.1048e-08
-5.24015e-08
1.10655e-08
-5.51705e-08
1.10609e-08
-5.79554e-08
1.10356e-08
-6.07513e-08
1.09909e-08
-6.35526e-08
1.09284e-08
-6.63547e-08
1.08505e-08
-6.91528e-08
1.07591e-08
-7.19416e-08
1.06551e-08
-7.47158e-08
1.05403e-08
-7.74701e-08
1.04157e-08
-8.01998e-08
1.02827e-08
-8.29001e-08
1.01418e-08
-8.55657e-08
9.99326e-09
-8.81922e-08
9.83814e-09
-9.07759e-08
9.67564e-09
-9.33121e-08
9.50583e-09
-9.57972e-08
9.32901e-09
-9.82271e-08
9.14429e-09
-1.00598e-07
8.95206e-09
-1.02908e-07
8.75224e-09
-1.05151e-07
8.5439e-09
-1.07326e-07
8.32706e-09
-1.0943e-07
8.10102e-09
-1.11458e-07
7.8648e-09
-1.13409e-07
7.61838e-09
-1.15281e-07
7.36105e-09
-1.17071e-07
7.09185e-09
-1.18778e-07
6.81097e-09
-1.204e-07
6.51894e-09
-1.21936e-07
6.21556e-09
-1.23383e-07
5.9011e-09
-1.24739e-07
5.57678e-09
-1.26004e-07
5.24342e-09
-1.27176e-07
4.90104e-09
-1.28252e-07
4.55032e-09
-1.29231e-07
4.19216e-09
-1.30112e-07
3.82643e-09
-1.30892e-07
3.45285e-09
-1.31571e-07
3.07211e-09
-1.32149e-07
2.68448e-09
-1.32624e-07
2.28916e-09
-1.32996e-07
1.88621e-09
-1.33264e-07
1.47699e-09
-1.3343e-07
1.06182e-09
-1.33492e-07
6.40145e-10
-1.3345e-07
2.12898e-10
-1.33304e-07
-2.1806e-10
-1.33057e-07
-6.52223e-10
-1.32708e-07
-1.08956e-09
-1.32256e-07
-1.5285e-09
-1.31703e-07
-1.96696e-09
-1.31051e-07
-2.40417e-09
-1.30299e-07
-2.83958e-09
-1.29448e-07
-3.27135e-09
-1.28501e-07
-3.69746e-09
-1.27457e-07
-4.11707e-09
-1.26318e-07
-4.52951e-09
-1.25084e-07
-4.93292e-09
-1.23756e-07
-5.32545e-09
-1.22337e-07
-5.70655e-09
-1.20827e-07
-6.07617e-09
-1.19225e-07
-6.43338e-09
-1.17535e-07
-6.777e-09
-1.15759e-07
-7.10691e-09
-1.13897e-07
-7.42378e-09
-1.11951e-07
-7.728e-09
-1.09924e-07
-8.01952e-09
-1.07818e-07
-8.29867e-09
-1.05637e-07
-8.56633e-09
-1.03384e-07
-8.8234e-09
-1.0106e-07
-9.07032e-09
-9.86717e-08
-9.30731e-09
-9.6222e-08
-9.5347e-09
-9.37148e-08
-9.75287e-09
-9.11544e-08
-9.96189e-09
-8.8546e-08
-1.01614e-08
-8.58948e-08
-1.03507e-08
-8.32058e-08
-1.05291e-08
-8.0484e-08
-1.06954e-08
-7.77344e-08
-1.08475e-08
-7.49624e-08
-1.09833e-08
-7.21726e-08
-1.11004e-08
-6.93695e-08
-1.1197e-08
-6.6557e-08
-1.1271e-08
-6.37397e-08
-1.13203e-08
-6.0922e-08
-1.13436e-08
-5.81081e-08
-1.134e-08
-5.53023e-08
-1.1309e-08
-5.2509e-08
-1.12505e-08
-4.97333e-08
-1.11645e-08
-4.69802e-08
-1.10515e-08
-4.42551e-08
-1.09123e-08
-4.15634e-08
-1.07478e-08
-3.89107e-08
-1.05586e-08
-3.63031e-08
-1.03456e-08
-3.37464e-08
-1.01097e-08
-3.12466e-08
-9.8517e-09
-2.88096e-08
-9.57225e-09
-2.64413e-08
-9.27196e-09
-2.41474e-08
-8.95146e-09
-2.19336e-08
-8.61155e-09
-1.98053e-08
-8.25315e-09
-1.77681e-08
-7.87695e-09
-1.58273e-08
-7.48371e-09
-1.3988e-08
-7.07433e-09
-1.22547e-08
-6.64952e-09
-1.06316e-08
-6.21007e-09
-9.12217e-09
-5.75706e-09
-7.72942e-09
-5.2917e-09
-6.45576e-09
-4.81564e-09
-5.30282e-09
-4.33087e-09
-4.27115e-09
-3.83965e-09
-3.36031e-09
-3.34499e-09
-2.56872e-09
-2.85092e-09
-1.89355e-09
-2.3623e-09
-1.3308e-09
-1.88455e-09
-8.75275e-10
-1.42416e-09
-5.203e-10
-9.88436e-10
-2.58001e-10
-5.84892e-10
-7.94093e-11
-2.21105e-10
2.60226e-11
9.67147e-11
6.99788e-11
3.65598e-10
6.52408e-11
5.87577e-10
2.93746e-11
7.26749e-10
4.7782e-10
-2.34807e-10
5.82497e-10
-5.4833e-10
2.76901e-10
-7.81747e-10
-5.32173e-10
-9.80554e-10
-9.60674e-10
-1.20154e-09
-1.0072e-09
-1.48112e-09
-7.8199e-10
-1.84622e-09
-3.59773e-10
-2.31477e-09
2.01056e-10
-2.89786e-09
8.58604e-10
-3.60211e-09
1.58348e-09
-4.43285e-09
2.35298e-09
-5.39158e-09
3.14823e-09
-6.47976e-09
3.95692e-09
-7.6928e-09
4.76353e-09
-9.034e-09
5.56407e-09
-1.04974e-08
6.34555e-09
-1.20842e-08
7.10416e-09
-1.37895e-08
7.83328e-09
-1.5612e-08
8.52788e-09
-1.75468e-08
9.18492e-09
-1.95927e-08
9.80175e-09
-2.17443e-08
1.03766e-08
-2.4e-08
1.09076e-08
-2.63527e-08
1.13947e-08
-2.87996e-08
1.18377e-08
-3.13351e-08
1.22387e-08
-3.39547e-08
1.25957e-08
-3.66527e-08
1.29133e-08
-3.94219e-08
1.31902e-08
-4.226e-08
1.34312e-08
-4.51566e-08
1.36346e-08
-4.81087e-08
1.38046e-08
-5.11075e-08
1.39418e-08
-5.41475e-08
1.40478e-08
-5.72231e-08
1.41235e-08
-6.03279e-08
1.41703e-08
-6.34566e-08
1.41895e-08
-6.6603e-08
1.4182e-08
-6.97619e-08
1.41498e-08
-7.29281e-08
1.40946e-08
-7.60955e-08
1.40179e-08
-7.92578e-08
1.39214e-08
-8.24096e-08
1.38068e-08
-8.55456e-08
1.36763e-08
-8.86599e-08
1.353e-08
-9.17462e-08
1.33691e-08
-9.47996e-08
1.31952e-08
-9.78147e-08
1.30084e-08
-1.00786e-07
1.28092e-08