/*--------------------------------*- C++ -*----------------------------------*\
  =========                 |
  \\      /  F ield         | OpenFOAM: The Open Source CFD Toolbox
   \\    /   O peration     | Website:  https://openfoam.org
    \\  /    A nd           | Version:  7
     \\/     M anipulation  |
\*---------------------------------------------------------------------------*/
FoamFile
{
    version     2.0;
    format      ascii;
    class       volVectorField;
    location    "0.0375";
    object      U;
}
// * * * * * * * * * * * * * * * * * * * * * * * * * * * * * * * * * * * * * //

dimensions      [0 1 -1 0 0 0 0];

internalField   nonuniform List<vector> 
25600
(
(8.89954e-06 -1.2437e-05 0)
(3.59063e-05 -2.42104e-05 0)
(8.22988e-05 -2.99677e-05 0)
(0.00013465 -3.28923e-05 0)
(0.000189276 -3.37014e-05 0)
(0.000243059 -3.38233e-05 0)
(0.000294987 -3.2847e-05 0)
(0.000342496 -3.06992e-05 0)
(0.000384944 -2.78284e-05 0)
(0.000420727 -2.35832e-05 0)
(0.000448147 -1.86296e-05 0)
(0.000467158 -1.30729e-05 0)
(0.000476133 -7.19897e-06 0)
(0.000474723 -7.60412e-07 0)
(0.000463631 5.19914e-06 0)
(0.000441951 1.16768e-05 0)
(0.000410886 1.72415e-05 0)
(0.000371292 2.1835e-05 0)
(0.000324198 2.58926e-05 0)
(0.000270325 2.9412e-05 0)
(0.000210672 3.2554e-05 0)
(0.000146649 3.49612e-05 0)
(7.9561e-05 3.58911e-05 0)
(1.01181e-05 3.62871e-05 0)
(-6.01813e-05 3.63025e-05 0)
(-0.000131508 3.59968e-05 0)
(-0.000201989 3.51095e-05 0)
(-0.000271338 3.40024e-05 0)
(-0.000339213 3.21043e-05 0)
(-0.000404519 3.01174e-05 0)
(-0.000467644 2.83525e-05 0)
(-0.000528164 2.64871e-05 0)
(-0.000586746 2.45992e-05 0)
(-0.000642485 2.27139e-05 0)
(-0.000695704 2.02474e-05 0)
(-0.000746731 1.78336e-05 0)
(-0.000794738 1.56663e-05 0)
(-0.000839489 1.31125e-05 0)
(-0.000880862 1.03159e-05 0)
(-0.000918339 7.87669e-06 0)
(-0.000952202 5.83503e-06 0)
(-0.00098283 3.81885e-06 0)
(-0.00101029 1.97192e-06 0)
(-0.00103506 3.11891e-07 0)
(-0.00105749 -1.51201e-06 0)
(-0.00107784 -3.27896e-06 0)
(-0.00109647 -4.43449e-06 0)
(-0.00111398 -4.78388e-06 0)
(-0.00113094 -4.63812e-06 0)
(-0.00114766 -4.21283e-06 0)
(-0.00116448 -3.72847e-06 0)
(-0.00118145 -3.46726e-06 0)
(-0.00119883 -3.13743e-06 0)
(-0.00121679 -2.48212e-06 0)
(-0.00123541 -1.39516e-06 0)
(-0.00125515 2.5442e-08 0)
(-0.00127614 1.40464e-06 0)
(-0.00129846 2.80629e-06 0)
(-0.00132228 4.27738e-06 0)
(-0.00134752 5.69556e-06 0)
(-0.00137421 7.13177e-06 0)
(-0.00140208 8.46895e-06 0)
(-0.0014307 9.58913e-06 0)
(-0.00145991 1.0499e-05 0)
(-0.00148931 1.10973e-05 0)
(-0.00151854 1.15137e-05 0)
(-0.00154753 1.199e-05 0)
(-0.00157608 1.24419e-05 0)
(-0.00160414 1.27673e-05 0)
(-0.00163177 1.30194e-05 0)
(-0.00165889 1.32368e-05 0)
(-0.00168549 1.34998e-05 0)
(-0.00171168 1.38188e-05 0)
(-0.00173738 1.40259e-05 0)
(-0.00176235 1.40092e-05 0)
(-0.00178639 1.37782e-05 0)
(-0.00180924 1.33578e-05 0)
(-0.00183065 1.28038e-05 0)
(-0.00185037 1.21716e-05 0)
(-0.00186818 1.14791e-05 0)
(-0.00188392 1.07053e-05 0)
(-0.00189734 9.73117e-06 0)
(-0.00190818 8.44529e-06 0)
(-0.00191624 6.93538e-06 0)
(-0.00192132 5.37123e-06 0)
(-0.00192319 3.80656e-06 0)
(-0.00192178 2.21848e-06 0)
(-0.00191704 5.58829e-07 0)
(-0.00190885 -1.23233e-06 0)
(-0.00189713 -3.0976e-06 0)
(-0.00188201 -4.85212e-06 0)
(-0.00186369 -6.38581e-06 0)
(-0.0018424 -7.71401e-06 0)
(-0.00181847 -8.83022e-06 0)
(-0.0017923 -9.68451e-06 0)
(-0.00176423 -1.02744e-05 0)
(-0.00173464 -1.06347e-05 0)
(-0.00170396 -1.07849e-05 0)
(-0.00167256 -1.07359e-05 0)
(-0.00164074 -1.04886e-05 0)
(-0.00160885 -1.0037e-05 0)
(-0.00157723 -9.42676e-06 0)
(-0.00154606 -8.76732e-06 0)
(-0.00151535 -8.1415e-06 0)
(-0.00148506 -7.56388e-06 0)
(-0.00145516 -7.04826e-06 0)
(-0.00142552 -6.64003e-06 0)
(-0.00139591 -6.37643e-06 0)
(-0.00136615 -6.28519e-06 0)
(-0.001336 -6.41199e-06 0)
(-0.0013051 -6.79749e-06 0)
(-0.00127303 -7.46484e-06 0)
(-0.00123931 -8.45781e-06 0)
(-0.00120351 -9.80504e-06 0)
(-0.00116522 -1.1402e-05 0)
(-0.00112417 -1.30223e-05 0)
(-0.00108034 -1.45014e-05 0)
(-0.00103394 -1.5829e-05 0)
(-0.000985339 -1.70102e-05 0)
(-0.000935003 -1.79401e-05 0)
(-0.000883452 -1.85036e-05 0)
(-0.000831244 -1.87038e-05 0)
(-0.000778947 -1.85859e-05 0)
(-0.000727121 -1.81271e-05 0)
(-0.000676278 -1.73117e-05 0)
(-0.000626852 -1.62515e-05 0)
(-0.000579174 -1.51366e-05 0)
(-0.000533443 -1.40656e-05 0)
(-0.000489757 -1.29888e-05 0)
(-0.000448171 -1.18548e-05 0)
(-0.000408701 -1.07438e-05 0)
(-0.000371309 -9.77112e-06 0)
(-0.000335919 -8.92918e-06 0)
(-0.000302437 -8.1324e-06 0)
(-0.00027079 -7.36031e-06 0)
(-0.000240969 -6.67878e-06 0)
(-0.000212954 -6.16492e-06 0)
(-0.0001866 -5.83423e-06 0)
(-0.000161681 -5.63852e-06 0)
(-0.000137974 -5.57502e-06 0)
(-0.000115295 -5.69499e-06 0)
(-9.35656e-05 -5.94256e-06 0)
(-7.28012e-05 -6.18227e-06 0)
(-5.29986e-05 -6.34995e-06 0)
(-3.41936e-05 -6.44339e-06 0)
(-1.64897e-05 -6.52419e-06 0)
(2.27815e-08 -6.61959e-06 0)
(1.51663e-05 -6.57404e-06 0)
(2.86568e-05 -6.23709e-06 0)
(4.0179e-05 -5.58612e-06 0)
(4.93445e-05 -4.67962e-06 0)
(5.58007e-05 -3.59491e-06 0)
(5.93319e-05 -2.32482e-06 0)
(5.98059e-05 -8.35698e-07 0)
(5.71055e-05 8.46124e-07 0)
(5.11633e-05 2.6006e-06 0)
(4.21152e-05 4.33769e-06 0)
(3.02276e-05 6.04712e-06 0)
(1.55736e-05 7.32514e-06 0)
(4.74947e-06 4.56193e-06 0)
(6.31502e-06 -3.29192e-05 0)
(4.34547e-05 -6.85045e-05 0)
(0.000101932 -8.58345e-05 0)
(0.000171885 -9.34232e-05 0)
(0.000247904 -9.50081e-05 0)
(0.000323221 -9.21729e-05 0)
(0.000393719 -8.71079e-05 0)
(0.000456565 -7.83132e-05 0)
(0.000509523 -6.77143e-05 0)
(0.000550687 -5.43284e-05 0)
(0.000578917 -3.91625e-05 0)
(0.000591865 -2.23449e-05 0)
(0.000589878 -4.60308e-06 0)
(0.000571982 1.34749e-05 0)
(0.000537325 3.14172e-05 0)
(0.000486986 4.90167e-05 0)
(0.000421199 6.53072e-05 0)
(0.000341816 8.01754e-05 0)
(0.000249076 9.27694e-05 0)
(0.000144379 0.000103949 0)
(3.01352e-05 0.000113374 0)
(-9.28038e-05 0.000120488 0)
(-0.000222754 0.000125903 0)
(-0.000358088 0.000128883 0)
(-0.000497955 0.000131036 0)
(-0.00064035 0.000130683 0)
(-0.000784594 0.0001306 0)
(-0.000929596 0.000127663 0)
(-0.00107415 0.000125179 0)
(-0.00121749 0.000121149 0)
(-0.0013595 0.000117223 0)
(-0.00149985 0.000113316 0)
(-0.00163716 0.00010932 0)
(-0.00177233 0.000105205 0)
(-0.00190517 0.00010084 0)
(-0.00203432 9.60026e-05 0)
(-0.00216023 9.07578e-05 0)
(-0.00228235 8.4852e-05 0)
(-0.00239994 7.85293e-05 0)
(-0.00251322 7.22231e-05 0)
(-0.00262209 6.61909e-05 0)
(-0.00272648 6.07087e-05 0)
(-0.0028266 5.58346e-05 0)
(-0.00292288 5.15433e-05 0)
(-0.00301563 4.75422e-05 0)
(-0.00310505 4.40474e-05 0)
(-0.00319152 4.13546e-05 0)
(-0.00327576 3.95286e-05 0)
(-0.00335853 3.86812e-05 0)
(-0.00343994 3.85668e-05 0)
(-0.00352008 3.89321e-05 0)
(-0.00359938 3.92708e-05 0)
(-0.00367821 3.96207e-05 0)
(-0.00375664 4.05466e-05 0)
(-0.0038346 4.1873e-05 0)
(-0.00391246 4.36474e-05 0)
(-0.00399054 4.57713e-05 0)
(-0.00406867 4.79659e-05 0)
(-0.00414687 5.02674e-05 0)
(-0.00422523 5.236e-05 0)
(-0.00430352 5.40759e-05 0)
(-0.00438148 5.5557e-05 0)
(-0.00445863 5.65525e-05 0)
(-0.00453443 5.68865e-05 0)
(-0.0046087 5.66383e-05 0)
(-0.00468116 5.59155e-05 0)
(-0.0047514 5.49932e-05 0)
(-0.0048192 5.40039e-05 0)
(-0.0048845 5.2861e-05 0)
(-0.00494712 5.1648e-05 0)
(-0.00500691 5.04692e-05 0)
(-0.00506379 4.92854e-05 0)
(-0.00511768 4.80423e-05 0)
(-0.00516853 4.65955e-05 0)
(-0.00521613 4.47912e-05 0)
(-0.0052601 4.25995e-05 0)
(-0.00530006 3.9946e-05 0)
(-0.0053358 3.67706e-05 0)
(-0.00536706 3.32158e-05 0)
(-0.00539345 2.94011e-05 0)
(-0.00541456 2.52537e-05 0)
(-0.00543019 2.06949e-05 0)
(-0.00544019 1.57026e-05 0)
(-0.00544412 1.02572e-05 0)
(-0.00544167 4.4506e-06 0)
(-0.00543287 -1.52051e-06 0)
(-0.00541763 -7.58663e-06 0)
(-0.00539569 -1.38255e-05 0)
(-0.00536712 -2.02055e-05 0)
(-0.00533207 -2.65247e-05 0)
(-0.00529047 -3.26053e-05 0)
(-0.00524244 -3.8341e-05 0)
(-0.00518854 -4.35823e-05 0)
(-0.00512919 -4.8176e-05 0)
(-0.00506463 -5.20948e-05 0)
(-0.00499537 -5.53747e-05 0)
(-0.00492216 -5.79977e-05 0)
(-0.00484541 -5.995e-05 0)
(-0.00476553 -6.1286e-05 0)
(-0.0046831 -6.20402e-05 0)
(-0.00459861 -6.2216e-05 0)
(-0.00451224 -6.19364e-05 0)
(-0.00442427 -6.14615e-05 0)
(-0.00433508 -6.09946e-05 0)
(-0.00424472 -6.05962e-05 0)
(-0.00415297 -6.0316e-05 0)
(-0.0040598 -6.02734e-05 0)
(-0.00396529 -6.05798e-05 0)
(-0.00386921 -6.12995e-05 0)
(-0.00377109 -6.25186e-05 0)
(-0.00367065 -6.43619e-05 0)
(-0.00356769 -6.69313e-05 0)
(-0.00346171 -7.02747e-05 0)
(-0.00335216 -7.43612e-05 0)
(-0.00323878 -7.89962e-05 0)
(-0.00312163 -8.38051e-05 0)
(-0.00300074 -8.83831e-05 0)
(-0.00287626 -9.24513e-05 0)
(-0.00274877 -9.58465e-05 0)
(-0.00261911 -9.84284e-05 0)
(-0.00248801 -0.000100074 0)
(-0.00235601 -0.000100738 0)
(-0.00222381 -0.000100433 0)
(-0.00209234 -9.91867e-05 0)
(-0.00196244 -9.70797e-05 0)
(-0.00183466 -9.4297e-05 0)
(-0.00170949 -9.10718e-05 0)
(-0.00158743 -8.75799e-05 0)
(-0.00146887 -8.3909e-05 0)
(-0.00135397 -8.01263e-05 0)
(-0.00124281 -7.6347e-05 0)
(-0.00113557 -7.26777e-05 0)
(-0.0010325 -6.91116e-05 0)
(-0.000933649 -6.55734e-05 0)
(-0.000838975 -6.20511e-05 0)
(-0.000748521 -5.86112e-05 0)
(-0.000662464 -5.53363e-05 0)
(-0.000580883 -5.2303e-05 0)
(-0.000503647 -4.95609e-05 0)
(-0.000430563 -4.71118e-05 0)
(-0.00036156 -4.49086e-05 0)
(-0.000296728 -4.28082e-05 0)
(-0.00023617 -4.06142e-05 0)
(-0.000179888 -3.82694e-05 0)
(-0.000127949 -3.5835e-05 0)
(-8.0625e-05 -3.33017e-05 0)
(-3.82274e-05 -3.05618e-05 0)
(-1.00108e-06 -2.73947e-05 0)
(3.08529e-05 -2.35992e-05 0)
(5.70947e-05 -1.92153e-05 0)
(7.73371e-05 -1.43764e-05 0)
(9.12523e-05 -9.14237e-06 0)
(9.88181e-05 -3.54095e-06 0)
(0.000100234 2.31169e-06 0)
(9.57615e-05 8.13609e-06 0)
(8.57061e-05 1.36829e-05 0)
(7.05641e-05 1.88162e-05 0)
(5.10966e-05 2.36643e-05 0)
(2.76938e-05 2.67134e-05 0)
(8.21754e-06 1.57247e-05 0)
(-6.271e-06 -4.76342e-05 0)
(8.82913e-06 -0.00010517 0)
(4.05625e-05 -0.000139977 0)
(8.66088e-05 -0.000157281 0)
(0.000140704 -0.00016144 0)
(0.000193426 -0.000156433 0)
(0.000240966 -0.000144143 0)
(0.000280132 -0.000126569 0)
(0.000307879 -0.000103798 0)
(0.000322949 -7.76981e-05 0)
(0.000324156 -4.7855e-05 0)
(0.000310966 -1.59879e-05 0)
(0.000282064 1.79389e-05 0)
(0.000238327 5.18437e-05 0)
(0.000179446 8.57381e-05 0)
(0.00010461 0.000118347 0)
(1.54491e-05 0.000149803 0)
(-8.77975e-05 0.000178111 0)
(-0.000203861 0.000203799 0)
(-0.000332046 0.000226417 0)
(-0.000472377 0.000245708 0)
(-0.000622064 0.000261905 0)
(-0.000780945 0.00027463 0)
(-0.000947874 0.00028436 0)
(-0.00112165 0.000291011 0)
(-0.00130107 0.000295613 0)
(-0.00148554 0.000296904 0)
(-0.00167394 0.000296853 0)
(-0.001865 0.000294662 0)
(-0.00205915 0.000291048 0)
(-0.00225403 0.000286786 0)
(-0.00245033 0.000281775 0)
(-0.00264767 0.000276801 0)
(-0.00284383 0.000270725 0)
(-0.00303942 0.000264492 0)
(-0.00323477 0.000257576 0)
(-0.00342812 0.000249529 0)
(-0.00361937 0.000240604 0)
(-0.00380889 0.000230805 0)
(-0.00399602 0.000220736 0)
(-0.0041804 0.000210869 0)
(-0.00436211 0.000201369 0)
(-0.00454102 0.00019262 0)
(-0.00471692 0.000184863 0)
(-0.00488986 0.000177882 0)
(-0.00505977 0.000171611 0)
(-0.00522667 0.000166369 0)
(-0.00539071 0.000162124 0)
(-0.00555207 0.000158862 0)
(-0.00571083 0.000156613 0)
(-0.00586688 0.000155044 0)
(-0.00602029 0.000153879 0)
(-0.00617115 0.000152932 0)
(-0.00631938 0.000152427 0)
(-0.00646497 0.00015247 0)
(-0.00660789 0.000152801 0)
(-0.00674821 0.000153551 0)
(-0.00688566 0.000154551 0)
(-0.00701989 0.000155416 0)
(-0.00715107 0.000155994 0)
(-0.00727896 0.000155977 0)
(-0.00740308 0.000155248 0)
(-0.00752339 0.000153848 0)
(-0.00763959 0.000151529 0)
(-0.00775132 0.000148237 0)
(-0.00785854 0.000144284 0)
(-0.00796095 0.000139847 0)
(-0.00805823 0.000135015 0)
(-0.00815035 0.000129926 0)
(-0.00823708 0.000124656 0)
(-0.00831801 0.000119261 0)
(-0.00839302 0.00011372 0)
(-0.00846206 0.000107897 0)
(-0.00852501 0.000101687 0)
(-0.00858162 9.49629e-05 0)
(-0.0086316 8.7587e-05 0)
(-0.00867488 7.95254e-05 0)
(-0.00871121 7.07238e-05 0)
(-0.00874029 6.11266e-05 0)
(-0.00876202 5.08939e-05 0)
(-0.00877625 4.0166e-05 0)
(-0.00878262 2.88136e-05 0)
(-0.00878105 1.67689e-05 0)
(-0.00877155 4.19342e-06 0)
(-0.00875378 -8.81113e-06 0)
(-0.00872762 -2.22102e-05 0)
(-0.00869335 -3.58454e-05 0)
(-0.00865103 -4.95683e-05 0)
(-0.00860045 -6.33299e-05 0)
(-0.00854175 -7.69663e-05 0)
(-0.0084752 -9.01817e-05 0)
(-0.00840087 -0.000102768 0)
(-0.00831891 -0.000114603 0)
(-0.00822973 -0.000125517 0)
(-0.00813357 -0.000135345 0)
(-0.00803059 -0.000144047 0)
(-0.00792119 -0.000151664 0)
(-0.00780594 -0.00015823 0)
(-0.00768513 -0.000163743 0)
(-0.00755894 -0.00016821 0)
(-0.00742767 -0.000171735 0)
(-0.00729171 -0.000174564 0)
(-0.00715134 -0.00017698 0)
(-0.00700673 -0.000179184 0)
(-0.00685806 -0.000181341 0)
(-0.00670549 -0.000183633 0)
(-0.0065492 -0.000186204 0)
(-0.00638923 -0.000189136 0)
(-0.00622558 -0.000192556 0)
(-0.00605823 -0.000196673 0)
(-0.00588727 -0.000201645 0)
(-0.00571273 -0.000207502 0)
(-0.00553455 -0.000214239 0)
(-0.00535279 -0.000221833 0)
(-0.00516768 -0.000230048 0)
(-0.00497947 -0.000238359 0)
(-0.00478836 -0.000246166 0)
(-0.00459463 -0.000253042 0)
(-0.00439881 -0.000258734 0)
(-0.00420151 -0.000263002 0)
(-0.00400318 -0.000265633 0)
(-0.00380427 -0.000266546 0)
(-0.00360539 -0.000265795 0)
(-0.00340733 -0.000263464 0)
(-0.00321074 -0.000259654 0)
(-0.00301613 -0.000254551 0)
(-0.00282402 -0.000248439 0)
(-0.00263501 -0.000241594 0)
(-0.00244965 -0.000234194 0)
(-0.00226827 -0.00022635 0)
(-0.00209125 -0.000218197 0)
(-0.00191904 -0.000209892 0)
(-0.00175214 -0.000201503 0)
(-0.00159088 -0.000192996 0)
(-0.00143541 -0.000184328 0)
(-0.00128597 -0.000175531 0)
(-0.00114293 -0.000166727 0)
(-0.00100662 -0.000158079 0)
(-0.000877247 -0.000149678 0)
(-0.000755019 -0.000141493 0)
(-0.000640166 -0.000133409 0)
(-0.000532984 -0.000125263 0)
(-0.000433698 -0.000116912 0)
(-0.000342393 -0.000108318 0)
(-0.00025926 -9.94675e-05 0)
(-0.000184649 -9.02833e-05 0)
(-0.00011885 -8.06192e-05 0)
(-6.20006e-05 -7.02863e-05 0)
(-1.41e-05 -5.9171e-05 0)
(2.48604e-05 -4.73513e-05 0)
(5.48369e-05 -3.50071e-05 0)
(7.59307e-05 -2.22997e-05 0)
(8.85596e-05 -9.43654e-06 0)
(9.33855e-05 3.23483e-06 0)
(9.1083e-05 1.5288e-05 0)
(8.23635e-05 2.63288e-05 0)
(6.81852e-05 3.61809e-05 0)
(4.96298e-05 4.5299e-05 0)
(2.71095e-05 5.11726e-05 0)
(8.10195e-06 3.17865e-05 0)
(-1.53701e-05 -4.21841e-05 0)
(-1.90138e-05 -0.000112309 0)
(-1.24107e-05 -0.0001668 0)
(1.01841e-05 -0.000195668 0)
(4.12617e-05 -0.000202847 0)
(7.14639e-05 -0.000195074 0)
(9.50036e-05 -0.000175425 0)
(0.000109568 -0.000147345 0)
(0.000111954 -0.000112539 0)
(0.000100725 -7.21947e-05 0)
(7.58767e-05 -2.83794e-05 0)
(3.50854e-05 1.87361e-05 0)
(-2.05875e-05 6.75503e-05 0)
(-9.13698e-05 0.000117146 0)
(-0.000177598 0.00016575 0)
(-0.00027799 0.000213287 0)
(-0.000393662 0.000258159 0)
(-0.000523346 0.000300542 0)
(-0.000666247 0.000339291 0)
(-0.000822733 0.000374007 0)
(-0.000990665 0.000404339 0)
(-0.00117036 0.000431231 0)
(-0.00136111 0.000452912 0)
(-0.00156174 0.000471919 0)
(-0.00177126 0.000486067 0)
(-0.00198918 0.000497466 0)
(-0.00221456 0.000504566 0)
(-0.00244621 0.00050994 0)
(-0.0026845 0.000511548 0)
(-0.00292716 0.000511846 0)
(-0.00317437 0.000510381 0)
(-0.00342525 0.00050707 0)
(-0.00367859 0.000503114 0)
(-0.00393433 0.000498337 0)
(-0.00419116 0.000491887 0)
(-0.0044489 0.000484515 0)
(-0.00470722 0.000476116 0)
(-0.00496558 0.000466196 0)
(-0.00522342 0.000455272 0)
(-0.00548054 0.00044387 0)
(-0.00573681 0.000432091 0)
(-0.0059915 0.000420379 0)
(-0.00624392 0.000409119 0)
(-0.00649417 0.000398434 0)
(-0.00674229 0.000388523 0)
(-0.00698749 0.000379463 0)
(-0.00722936 0.000371343 0)
(-0.00746795 0.000364005 0)
(-0.00770296 0.000357395 0)
(-0.00793404 0.000351628 0)
(-0.0081609 0.000346436 0)
(-0.0083837 0.00034167 0)
(-0.00860233 0.000337302 0)
(-0.00881624 0.000333188 0)
(-0.00902534 0.000329393 0)
(-0.00922943 0.000325717 0)
(-0.00942823 0.000322158 0)
(-0.00962161 0.000318772 0)
(-0.00980914 0.000315073 0)
(-0.00999066 0.000310762 0)
(-0.010166 0.000305779 0)
(-0.0103347 0.000299854 0)
(-0.0104967 0.000292886 0)
(-0.0106519 0.000284885 0)
(-0.0108001 0.000275822 0)
(-0.010941 0.000265861 0)
(-0.0110746 0.000255172 0)
(-0.0112004 0.000243812 0)
(-0.0113184 0.000231962 0)
(-0.0114283 0.000219773 0)
(-0.0115298 0.000207252 0)
(-0.0116226 0.000194371 0)
(-0.0117066 0.000180973 0)
(-0.0117816 0.0001669 0)
(-0.0118476 0.000152201 0)
(-0.0119042 0.000136803 0)
(-0.0119513 0.00012048 0)
(-0.0119891 0.000103257 0)
(-0.0120172 8.52515e-05 0)
(-0.0120354 6.63727e-05 0)
(-0.0120436 4.663e-05 0)
(-0.012042 2.62184e-05 0)
(-0.0120304 5.17759e-06 0)
(-0.0120087 -1.65147e-05 0)
(-0.0119767 -3.86705e-05 0)
(-0.0119349 -6.11039e-05 0)
(-0.011883 -8.38015e-05 0)
(-0.0118211 -0.000106654 0)
(-0.0117495 -0.000129356 0)
(-0.0116682 -0.000151661 0)
(-0.0115773 -0.000173452 0)
(-0.0114769 -0.000194558 0)
(-0.0113675 -0.000214701 0)
(-0.0112489 -0.000233649 0)
(-0.0111212 -0.000251304 0)
(-0.0109848 -0.000267646 0)
(-0.01084 -0.000282646 0)
(-0.010687 -0.000296258 0)
(-0.0105258 -0.000308497 0)
(-0.0103569 -0.000319463 0)
(-0.0101806 -0.000329298 0)
(-0.00999693 -0.000338158 0)
(-0.0098061 -0.00034628 0)
(-0.00960859 -0.000353966 0)
(-0.00940473 -0.00036145 0)
(-0.00919461 -0.000368836 0)
(-0.00897843 -0.000376229 0)
(-0.00875666 -0.000383838 0)
(-0.0085296 -0.000391881 0)
(-0.00829732 -0.000400463 0)
(-0.00806003 -0.000409632 0)
(-0.00781822 -0.000419464 0)
(-0.00757235 -0.000429997 0)
(-0.00732271 -0.000441068 0)
(-0.00706969 -0.000452304 0)
(-0.00681381 -0.000463241 0)
(-0.00655552 -0.000473416 0)
(-0.00629521 -0.000482365 0)
(-0.00603328 -0.000489655 0)
(-0.00577027 -0.000494957 0)
(-0.00550662 -0.000498098 0)
(-0.00524276 -0.000499017 0)
(-0.00497922 -0.000497711 0)
(-0.00471664 -0.000494215 0)
(-0.00445562 -0.000488659 0)
(-0.00419664 -0.000481275 0)
(-0.0039403 -0.000472323 0)
(-0.00368728 -0.000462028 0)
(-0.00343821 -0.000450584 0)
(-0.00319358 -0.00043816 0)
(-0.00295399 -0.000424928 0)
(-0.00272013 -0.000411061 0)
(-0.00249269 -0.000396651 0)
(-0.00227216 -0.000381694 0)
(-0.00205887 -0.000366172 0)
(-0.00185326 -0.000350138 0)
(-0.00165597 -0.000333714 0)
(-0.00146755 -0.00031707 0)
(-0.00128842 -0.000300314 0)
(-0.00111897 -0.000283398 0)
(-0.000959703 -0.000266222 0)
(-0.000811137 -0.00024869 0)
(-0.000673646 -0.000230702 0)
(-0.000547392 -0.000212228 0)
(-0.000432564 -0.000193245 0)
(-0.000329548 -0.000173662 0)
(-0.000238661 -0.000153403 0)
(-0.000159957 -0.000132415 0)
(-9.33073e-05 -0.000110717 0)
(-3.85066e-05 -8.84798e-05 0)
(4.69684e-06 -6.59758e-05 0)
(3.67135e-05 -4.35288e-05 0)
(5.82204e-05 -2.15507e-05 0)
(7.0148e-05 -6.16629e-07 0)
(7.35061e-05 1.86949e-05 0)
(6.9322e-05 3.59448e-05 0)
(5.89218e-05 5.10213e-05 0)
(4.35291e-05 6.45342e-05 0)
(2.39824e-05 7.32013e-05 0)
(7.25861e-06 4.64086e-05 0)
(-2.13448e-05 -2.31441e-05 0)
(-3.80833e-05 -9.85543e-05 0)
(-4.99184e-05 -0.000171777 0)
(-4.52031e-05 -0.000212338 0)
(-3.25044e-05 -0.000222018 0)
(-2.26348e-05 -0.000210429 0)
(-1.93183e-05 -0.000182766 0)
(-2.66093e-05 -0.00014353 0)
(-4.66497e-05 -9.53223e-05 0)
(-8.16946e-05 -4.11321e-05 0)
(-0.000132036 1.84251e-05 0)
(-0.000197529 7.99507e-05 0)
(-0.000279915 0.000144605 0)
(-0.000378272 0.000208941 0)
(-0.000492053 0.000273158 0)
(-0.000622137 0.000335366 0)
(-0.000767126 0.000394909 0)
(-0.000926948 0.000451119 0)
(-0.00110159 0.000503341 0)
(-0.00129029 0.000551171 0)
(-0.00149255 0.000594689 0)
(-0.00170782 0.000632334 0)
(-0.00193507 0.00066634 0)
(-0.00217412 0.000694541 0)
(-0.0024246 0.000719124 0)
(-0.00268506 0.000738868 0)
(-0.00295484 0.000754933 0)
(-0.00323363 0.000766958 0)
(-0.00352045 0.000775795 0)
(-0.00381407 0.000782049 0)
(-0.00411444 0.000785076 0)
(-0.00442015 0.000787106 0)
(-0.00473037 0.000786243 0)
(-0.00504441 0.000783862 0)
(-0.00536148 0.00077991 0)
(-0.00568093 0.000774013 0)
(-0.00600222 0.000766371 0)
(-0.00632483 0.000757124 0)
(-0.00664821 0.000746489 0)
(-0.00697204 0.000734832 0)
(-0.00729574 0.000722496 0)
(-0.00761858 0.000709822 0)
(-0.00794005 0.000697024 0)
(-0.00825953 0.000684109 0)
(-0.00857653 0.000671462 0)
(-0.00889055 0.000659307 0)
(-0.00920124 0.000647663 0)
(-0.00950816 0.00063661 0)
(-0.0098105 0.000625986 0)
(-0.010108 0.000615759 0)
(-0.0104002 0.000605699 0)
(-0.0106868 0.000595678 0)
(-0.0109675 0.000585909 0)
(-0.011242 0.000576189 0)
(-0.01151 0.000566396 0)
(-0.0117709 0.000556568 0)
(-0.0120243 0.000546443 0)
(-0.0122701 0.000535986 0)
(-0.0125078 0.000525039 0)
(-0.0127372 0.000513241 0)
(-0.0129579 0.000500549 0)
(-0.0131696 0.000486768 0)
(-0.0133723 0.000471657 0)
(-0.0135657 0.000455292 0)
(-0.0137496 0.000437754 0)
(-0.0139238 0.000419141 0)
(-0.0140883 0.000399608 0)
(-0.0142426 0.000379155 0)
(-0.0143866 0.000357911 0)
(-0.0145199 0.000336165 0)
(-0.0146423 0.000313854 0)
(-0.0147536 0.00029084 0)
(-0.0148537 0.000267226 0)
(-0.0149422 0.0002429 0)
(-0.0150188 0.000217618 0)
(-0.0150837 0.000191439 0)
(-0.0151369 0.000164402 0)
(-0.0151779 0.000136346 0)
(-0.0152069 0.000107334 0)
(-0.0152239 7.75548e-05 0)
(-0.0152288 4.69124e-05 0)
(-0.0152212 1.53292e-05 0)
(-0.0152016 -1.69364e-05 0)
(-0.0151699 -4.96367e-05 0)
(-0.015126 -8.27593e-05 0)
(-0.0150698 -0.000116239 0)
(-0.015002 -0.000149842 0)
(-0.0149225 -0.000183362 0)
(-0.0148309 -0.000216661 0)
(-0.0147277 -0.000249536 0)
(-0.0146133 -0.000281736 0)
(-0.0144876 -0.000313034 0)
(-0.0143506 -0.000343242 0)
(-0.0142025 -0.000372179 0)
(-0.0140436 -0.00039969 0)
(-0.013874 -0.00042566 0)
(-0.0136936 -0.00045006 0)
(-0.013503 -0.00047292 0)
(-0.0133022 -0.000494247 0)
(-0.0130915 -0.000514024 0)
(-0.0128709 -0.000532363 0)
(-0.0126408 -0.000549535 0)
(-0.0124017 -0.000565792 0)
(-0.0121537 -0.000581258 0)
(-0.0118971 -0.000596063 0)
(-0.0116323 -0.000610448 0)
(-0.0113598 -0.000624643 0)
(-0.01108 -0.000638741 0)
(-0.0107933 -0.000652792 0)
(-0.0105 -0.000666933 0)
(-0.0102007 -0.00068133 0)
(-0.00989604 -0.000696004 0)
(-0.00958653 -0.000710802 0)
(-0.00927264 -0.000725499 0)
(-0.00895507 -0.000739828 0)
(-0.00863458 -0.000753406 0)
(-0.00831169 -0.00076573 0)
(-0.00798674 -0.000776306 0)
(-0.00766027 -0.000784761 0)
(-0.0073329 -0.000790841 0)
(-0.00700515 -0.000794333 0)
(-0.00667739 -0.00079507 0)
(-0.00635013 -0.000792986 0)
(-0.00602407 -0.000788147 0)
(-0.00569989 -0.000780704 0)
(-0.0053781 -0.000770852 0)
(-0.00505928 -0.000758778 0)
(-0.00474417 -0.000744661 0)
(-0.00443352 -0.000728702 0)
(-0.00412803 -0.000711113 0)
(-0.00382843 -0.000692084 0)
(-0.00353555 -0.000671753 0)
(-0.00325017 -0.000650194 0)
(-0.0029729 -0.00062743 0)
(-0.00270431 -0.000603509 0)
(-0.00244503 -0.000578538 0)
(-0.00219588 -0.000552628 0)
(-0.00195757 -0.000525884 0)
(-0.00173064 -0.000498399 0)
(-0.00151564 -0.000470202 0)
(-0.00131327 -0.000441279 0)
(-0.00112414 -0.000411588 0)
(-0.000948718 -0.000381041 0)
(-0.000787282 -0.000349595 0)
(-0.000640073 -0.000317303 0)
(-0.000507491 -0.000284217 0)
(-0.000389828 -0.00025037 0)
(-0.000287082 -0.000215833 0)
(-0.000199048 -0.000180757 0)
(-0.000125433 -0.000145437 0)
(-6.58452e-05 -0.000110329 0)
(-1.96866e-05 -7.59782e-05 0)
(1.38716e-05 -4.2999e-05 0)
(3.59388e-05 -1.21054e-05 0)
(4.77489e-05 1.59715e-05 0)
(5.05436e-05 4.07058e-05 0)
(4.58096e-05 6.19268e-05 0)
(3.50335e-05 8.02376e-05 0)
(1.97033e-05 9.17904e-05 0)
(6.12062e-06 5.87276e-05 0)
(-2.54666e-05 4.11232e-06 0)
(-5.08092e-05 -6.92755e-05 0)
(-7.65464e-05 -0.000161468 0)
(-8.70915e-05 -0.000212127 0)
(-8.99656e-05 -0.000224176 0)
(-9.70865e-05 -0.000207586 0)
(-0.000112944 -0.000171067 0)
(-0.000140045 -0.000119006 0)
(-0.000181998 -5.70424e-05 0)
(-0.000239477 1.34077e-05 0)
(-0.000313596 8.88222e-05 0)
(-0.00040525 0.000167707 0)
(-0.000513587 0.000247973 0)
(-0.000639908 0.000329423 0)
(-0.000783156 0.000409452 0)
(-0.000943159 0.000487731 0)
(-0.00112016 0.000563447 0)
(-0.00131333 0.000634461 0)
(-0.00152206 0.000702065 0)
(-0.00174647 0.000764022 0)
(-0.00198611 0.000821393 0)
(-0.00223965 0.000873173 0)
(-0.00250742 0.000919562 0)
(-0.00278866 0.000960135 0)
(-0.00308173 0.000996216 0)
(-0.00338743 0.00102642 0)
(-0.00370415 0.00105271 0)
(-0.0040312 0.00107383 0)
(-0.00436802 0.00109147 0)
(-0.0047138 0.00110498 0)
(-0.00506686 0.00111506 0)
(-0.00542728 0.00112251 0)
(-0.00579433 0.0011271 0)
(-0.00616573 0.00112893 0)
(-0.00654158 0.00112828 0)
(-0.00692123 0.0011252 0)
(-0.00730373 0.00111971 0)
(-0.00768846 0.00111203 0)
(-0.00807462 0.00110234 0)
(-0.00846172 0.00109091 0)
(-0.00884939 0.00107829 0)
(-0.00923662 0.00106475 0)
(-0.00962262 0.00105047 0)
(-0.0100068 0.00103564 0)
(-0.0103886 0.00102041 0)
(-0.010767 0.0010049 0)
(-0.0111413 0.000989142 0)
(-0.0115114 0.000973514 0)
(-0.0118763 0.000957902 0)
(-0.0122355 0.000942089 0)
(-0.0125884 0.000926118 0)
(-0.0129344 0.000909761 0)
(-0.0132732 0.000893073 0)
(-0.0136043 0.000876069 0)
(-0.013927 0.00085852 0)
(-0.0142412 0.000840576 0)
(-0.0145461 0.000822083 0)
(-0.0148414 0.000802693 0)
(-0.0151267 0.000782395 0)
(-0.0154016 0.000761032 0)
(-0.0156658 0.000738456 0)
(-0.015919 0.000714578 0)
(-0.016161 0.000689161 0)
(-0.0163915 0.000662258 0)
(-0.0166102 0.00063405 0)
(-0.0168171 0.000604459 0)
(-0.0170119 0.000573627 0)
(-0.0171944 0.00054182 0)
(-0.0173641 0.000508985 0)
(-0.0175207 0.000475185 0)
(-0.0176643 0.00044065 0)
(-0.0177944 0.000405258 0)
(-0.0179106 0.000368871 0)
(-0.0180132 0.000331678 0)
(-0.0181018 0.000293641 0)
(-0.018176 0.00025444 0)
(-0.018236 0.000214106 0)
(-0.0182819 0.000172878 0)
(-0.0183134 0.000130714 0)
(-0.0183303 8.75299e-05 0)
(-0.018333 4.3506e-05 0)
(-0.0183215 -1.19845e-06 0)
(-0.0182954 -4.6594e-05 0)
(-0.0182549 -9.25766e-05 0)
(-0.0182004 -0.000138881 0)
(-0.0181318 -0.000185325 0)
(-0.0180491 -0.000231815 0)
(-0.0179525 -0.000278166 0)
(-0.0178422 -0.000324107 0)
(-0.0177185 -0.000369417 0)
(-0.0175811 -0.000413941 0)
(-0.0174304 -0.000457503 0)
(-0.0172667 -0.00049985 0)
(-0.0170899 -0.000540732 0)
(-0.0169001 -0.000580009 0)
(-0.0166974 -0.000617656 0)
(-0.0164824 -0.000653631 0)
(-0.0162551 -0.000687827 0)
(-0.0160154 -0.00072018 0)
(-0.0157636 -0.000750787 0)
(-0.0155003 -0.000779825 0)
(-0.0152258 -0.00080742 0)
(-0.0149399 -0.000833655 0)
(-0.0146432 -0.000858694 0)
(-0.0143364 -0.000882769 0)
(-0.0140198 -0.000906051 0)
(-0.0136938 -0.000928608 0)
(-0.0133588 -0.000950529 0)
(-0.0130157 -0.000971967 0)
(-0.0126649 -0.00099303 0)
(-0.0123071 -0.00101369 0)
(-0.0119428 -0.00103388 0)
(-0.0115729 -0.0010535 0)
(-0.011198 -0.00107245 0)
(-0.010819 -0.00109039 0)
(-0.0104366 -0.00110687 0)
(-0.0100513 -0.00112143 0)
(-0.00966389 -0.00113369 0)
(-0.00927494 -0.00114337 0)
(-0.00888509 -0.00115015 0)
(-0.00849482 -0.00115376 0)
(-0.00810461 -0.00115405 0)
(-0.00771514 -0.00115096 0)
(-0.00732721 -0.00114456 0)
(-0.00694148 -0.00113491 0)
(-0.0065585 -0.00112215 0)
(-0.00617892 -0.00110641 0)
(-0.00580361 -0.00108787 0)
(-0.00543347 -0.00106672 0)
(-0.00506927 -0.0010432 0)
(-0.00471182 -0.00101746 0)
(-0.00436205 -0.000989586 0)
(-0.00402086 -0.000959649 0)
(-0.00368903 -0.00092773 0)
(-0.00336727 -0.000893942 0)
(-0.00305635 -0.000858418 0)
(-0.00275718 -0.000821249 0)
(-0.00247064 -0.000782483 0)
(-0.0021974 -0.000742237 0)
(-0.00193814 -0.000700635 0)
(-0.00169362 -0.000657716 0)
(-0.00146452 -0.00061347 0)
(-0.00125137 -0.000567853 0)
(-0.00105457 -0.000520888 0)
(-0.000874461 -0.000472767 0)
(-0.000711428 -0.000423675 0)
(-0.000565717 -0.000373735 0)
(-0.000437293 -0.00032313 0)
(-0.00032593 -0.000272187 0)
(-0.000231324 -0.000221419 0)
(-0.000153024 -0.000171482 0)
(-9.03108e-05 -0.000123141 0)
(-4.22254e-05 -7.71667e-05 0)
(-7.59938e-06 -3.4393e-05 0)
(1.49016e-05 4.2538e-06 0)
(2.6621e-05 3.80888e-05 0)
(2.91696e-05 6.67817e-05 0)
(2.44064e-05 9.08719e-05 0)
(1.43834e-05 0.000105851 0)
(4.76607e-06 6.82522e-05 0)
(-2.78405e-05 3.71954e-05 0)
(-5.98869e-05 -2.927e-05 0)
(-9.58344e-05 -0.000138756 0)
(-0.00011836 -0.000198387 0)
(-0.000135335 -0.000210456 0)
(-0.000158962 -0.000187904 0)
(-0.000192094 -0.000140125 0)
(-0.000239146 -7.47273e-05 0)
(-0.000301733 3.40205e-06 0)
(-0.000381681 9.09735e-05 0)
(-0.000480491 0.000183628 0)
(-0.000597319 0.000281325 0)
(-0.000733097 0.000379612 0)
(-0.000887768 0.000478692 0)
(-0.00106122 0.000576532 0)
(-0.00125282 0.00067243 0)
(-0.00146331 0.000764449 0)
(-0.00169083 0.000853311 0)
(-0.00193581 0.000936344 0)
(-0.00219807 0.00101478 0)
(-0.00247619 0.00108716 0)
(-0.00277084 0.00115419 0)
(-0.00308069 0.00121457 0)
(-0.00340466 0.00126964 0)
(-0.00374353 0.00131814 0)
(-0.00409538 0.00136108 0)
(-0.00445952 0.00139854 0)
(-0.004836 0.00143067 0)
(-0.00522322 0.00145808 0)
(-0.00562087 0.00148054 0)
(-0.00602727 0.00149938 0)
(-0.00644171 0.00151323 0)
(-0.00686381 0.0015243 0)
(-0.00729206 0.00153167 0)
(-0.00772544 0.00153534 0)
(-0.00816338 0.00153601 0)
(-0.00860502 0.00153356 0)
(-0.00904952 0.00152815 0)
(-0.00949619 0.0015201 0)
(-0.00994415 0.00150961 0)
(-0.0103926 0.00149703 0)
(-0.0108408 0.00148266 0)
(-0.011288 0.00146682 0)
(-0.0117333 0.00144977 0)
(-0.0121758 0.0014316 0)
(-0.0126148 0.00141247 0)
(-0.0130493 0.00139235 0)
(-0.0134786 0.00137147 0)
(-0.0139022 0.00134996 0)
(-0.0143192 0.00132757 0)
(-0.014729 0.0013045 0)
(-0.0151309 0.00128065 0)
(-0.0155241 0.00125575 0)
(-0.0159085 0.00122998 0)
(-0.0162831 0.00120325 0)
(-0.0166474 0.00117548 0)
(-0.017001 0.00114673 0)
(-0.0173435 0.00111669 0)
(-0.0176741 0.00108526 0)
(-0.0179926 0.00105246 0)
(-0.0182984 0.00101802 0)
(-0.0185914 0.000981914 0)
(-0.0188714 0.000944175 0)
(-0.0191377 0.000904661 0)
(-0.0193903 0.00086351 0)
(-0.019629 0.000820871 0)
(-0.0198534 0.000776631 0)
(-0.0200632 0.00073101 0)
(-0.0202583 0.000684357 0)
(-0.0204382 0.000636511 0)
(-0.0206025 0.000587352 0)
(-0.0207514 0.000537189 0)
(-0.0208844 0.000486062 0)
(-0.0210011 0.000433719 0)
(-0.0211016 0.000380255 0)
(-0.021186 0.000325841 0)
(-0.0212539 0.000270292 0)
(-0.0213049 0.000213525 0)
(-0.0213396 0.000155796 0)
(-0.0213579 9.72265e-05 0)
(-0.0213595 3.77428e-05 0)