/*--------------------------------*- C++ -*----------------------------------*\
  =========                 |
  \\      /  F ield         | OpenFOAM: The Open Source CFD Toolbox
   \\    /   O peration     | Website:  https://openfoam.org
    \\  /    A nd           | Version:  7
     \\/     M anipulation  |
\*---------------------------------------------------------------------------*/
FoamFile
{
    version     2.0;
    format      ascii;
    class       volScalarField;
    location    "0.35";
    object      p;
}
// * * * * * * * * * * * * * * * * * * * * * * * * * * * * * * * * * * * * * //

dimensions      [0 2 -2 0 0 0 0];

internalField   nonuniform List<scalar> 
25600
(
6.3239e-06
0.000122771
0.00015243
4.42364e-05
-0.000209122
-0.000603474
-0.00112785
-0.0017678
-0.00250789
-0.00333289
-0.00422825
-0.00518034
-0.00617656
-0.00720526
-0.00825573
-0.00931813
-0.0103835
-0.0114434
-0.0124905
-0.0135177
-0.0145188
-0.015488
-0.01642
-0.01731
-0.0181535
-0.0189467
-0.0196859
-0.0203679
-0.0209899
-0.0215492
-0.0220438
-0.0224714
-0.0228304
-0.0231193
-0.0233368
-0.0234818
-0.0235535
-0.0235512
-0.0234745
-0.0233231
-0.0230968
-0.0227958
-0.0224201
-0.0219701
-0.0214463
-0.0208492
-0.0201796
-0.0194382
-0.018626
-0.0177441
-0.0167936
-0.0157758
-0.0146921
-0.0135437
-0.0123323
-0.0110595
-0.00972693
-0.00833636
-0.0068896
-0.00538857
-0.00383521
-0.00223155
-0.00057968
0.00111826
0.00286006
0.00464345
0.00646613
0.00832572
0.0102198
0.0121461
0.0141019
0.0160848
0.0180923
0.0201217
0.0221704
0.0242357
0.026315
0.0284056
0.0305046
0.0326094
0.0347171
0.036825
0.0389304
0.0410303
0.0431221
0.0452028
0.0472697
0.04932
0.0513509
0.0533596
0.0553432
0.0572992
0.0592247
0.061117
0.0629735
0.0647916
0.0665685
0.0683019
0.0699891
0.0716277
0.0732154
0.0747497
0.0762285
0.0776495
0.0790107
0.08031
0.0815454
0.0827151
0.0838173
0.0848504
0.0858129
0.0867034
0.0875205
0.0882631
0.0889302
0.0895208
0.0900343
0.0904699
0.0908274
0.0911065
0.091307
0.0914292
0.0914732
0.0914396
0.091329
0.0911424
0.0908809
0.0905459
0.090139
0.089662
0.0891171
0.0885068
0.0878336
0.0871007
0.0863113
0.0854692
0.0845783
0.0836432
0.0826684
0.0816594
0.0806218
0.0795618
0.078486
0.0774017
0.0763166
0.0752394
0.0741791
0.0731456
0.0721496
0.0712026
0.0703171
0.0695061
0.0687837
0.0681642
0.0676621
0.0672904
0.0670585
0.0669683
0.0670086
0.067124
-0.000100545
1.19279e-05
1.62236e-05
-0.000104716
-0.000346751
-0.000708167
-0.00118244
-0.00175918
-0.00242643
-0.00317181
-0.00398305
-0.00484833
-0.00575643
-0.00669679
-0.00765957
-0.00863563
-0.0096165
-0.0105943
-0.011562
-0.0125127
-0.0134405
-0.0143397
-0.0152052
-0.0160322
-0.0168165
-0.0175541
-0.0182415
-0.0188755
-0.0194532
-0.0199721
-0.0204299
-0.0208246
-0.0211544
-0.0214177
-0.0216132
-0.0217398
-0.0217966
-0.0217829
-0.0216982
-0.0215422
-0.0213146
-0.0210154
-0.0206448
-0.020203
-0.0196904
-0.0191075
-0.0184549
-0.0177333
-0.0169438
-0.0160872
-0.0151645
-0.0141771
-0.0131261
-0.012013
-0.0108391
-0.00960596
-0.00831522
-0.00696854
-0.00556766
-0.00411441
-0.00261065
-0.00105834
0.000540517
0.00218385
0.00386954
0.00559539
0.00735917
0.00915862
0.0109914
0.0128552
0.0147475
0.0166661
0.0186083
0.0205717
0.0225537
0.0245518
0.0265633
0.0285856
0.0306161
0.0326521
0.034691
0.0367299
0.0387663
0.0407974
0.0428206
0.044833
0.046832
0.048815
0.0507791
0.0527217
0.0546401
0.0565316
0.0583937
0.0602237
0.0620191
0.0637773
0.0654958
0.0671721
0.0688039
0.0703888
0.0719246
0.0734089
0.0748396
0.0762146
0.077532
0.0787897
0.0799859
0.0811189
0.0821869
0.0831886
0.0841223
0.0849868
0.0857808
0.0865033
0.0871534
0.0877302
0.088233
0.0886613
0.0890149
0.0892934
0.0894969
0.0896256
0.0896797
0.0896599
0.0895668
0.0894014
0.0891649
0.0888587
0.0884844
0.0880438
0.0875392
0.0869729
0.0863476
0.0856663
0.0849323
0.0841492
0.083321
0.082452
0.0815468
0.0806106
0.0796489
0.0786675
0.077673
0.0766722
0.0756726
0.0746822
0.0737096
0.0727638
0.0718548
0.0709929
0.0701891
0.0694548
0.0688017
0.0682414
0.0677849
0.0674416
0.0672166
0.0671102
0.0671242
0.0672394
-0.000128317
8.09797e-06
1.23268e-05
-0.000109826
-0.000341878
-0.000680808
-0.00112121
-0.00165436
-0.00227019
-0.00295817
-0.00370765
-0.00450816
-0.00534962
-0.0062224
-0.00711744
-0.00802622
-0.00894078
-0.00985373
-0.0107582
-0.0116478
-0.0125168
-0.0133596
-0.0141713
-0.0149473
-0.0156833
-0.0163756
-0.0170206
-0.0176152
-0.0181565
-0.0186421
-0.0190696
-0.019437
-0.0197425
-0.0199845
-0.0201618
-0.020273
-0.0203175
-0.0202943
-0.0202029
-0.0200429
-0.0198142
-0.0195166
-0.0191502
-0.0187153
-0.018212
-0.0176409
-0.0170026
-0.0162977
-0.0155271
-0.0146917
-0.0137924
-0.0128305
-0.0118072
-0.0107236
-0.00958124
-0.00838152
-0.00712601
-0.00581629
-0.00445406
-0.00304107
-0.00157912
-7.00903e-05
0.00148407
0.00308136
0.00471973
0.00639705
0.00811116
0.00985985
0.0116409
0.013452
0.0152908
0.017155
0.0190422
0.0209499
0.0228757
0.024817
0.0267714
0.0287362
0.0307089
0.0326869
0.0346676
0.0366485
0.0386267
0.0405999
0.0425652
0.0445201
0.046462
0.0483882
0.0502961
0.0521831
0.0540466
0.0558839
0.0576927
0.0594703
0.0612143
0.0629222
0.0645916
0.0662201
0.0678054
0.0693452
0.0708374
0.0722798
0.0736702
0.0750067
0.0762873
0.0775102
0.0786737
0.0797759
0.0808154
0.0817907
0.0827004
0.0835432
0.084318
0.0850237
0.0856596
0.0862249
0.0867188
0.0871411
0.0874913
0.0877694
0.0879754
0.0881094
0.0881719
0.0881635
0.0880849
0.087937
0.0877211
0.0874386
0.0870911
0.0866805
0.0862089
0.0856787
0.0850926
0.0844534
0.0837646
0.0830295
0.0822521
0.0814366
0.0805875
0.0797097
0.0788087
0.0778901
0.07696
0.0760252
0.0750926
0.0741698
0.0732648
0.0723862
0.071543
0.0707446
0.0700009
0.069322
0.068718
0.0681988
0.0677735
0.06745
0.0672327
0.0671236
0.0671378
0.0672799
-2.04795e-05
0.000129132
0.000134969
1.29398e-05
-0.000213176
-0.000538369
-0.000956957
-0.00146072
-0.00204063
-0.00268724
-0.00339107
-0.00414269
-0.00493295
-0.00575304
-0.00659457
-0.00744962
-0.00831073
-0.00917092
-0.0100237
-0.0108629
-0.0116831
-0.012479
-0.0132457
-0.0139787
-0.0146741
-0.0153279
-0.0159369
-0.0164979
-0.0170082
-0.0174652
-0.0178667
-0.0182106
-0.0184952
-0.0187189
-0.0188803
-0.0189783
-0.019012
-0.0189805
-0.0188833
-0.01872
-0.0184904
-0.0181942
-0.0178315
-0.0174025
-0.0169074
-0.0163468
-0.015721
-0.0150307
-0.0142768
-0.01346
-0.0125814
-0.0116419
-0.0106429
-0.00958541
-0.00847085
-0.00730062
-0.00607619
-0.00479912
-0.00347101
-0.00209358
-0.000668559
0.000802219
0.00231688
0.00387347
0.00547
0.00710441
0.00877459
0.0104784
0.0122137
0.0139782
0.0157697
0.0175858
0.0194243
0.0212828
0.0231589
0.02505
0.0269538
0.0288678
0.0307895
0.0327162
0.0346456
0.0365751
0.038502
0.040424
0.0423383
0.0442424
0.0461339
0.04801
0.0498683
0.0517063
0.0535213
0.055311
0.0570728
0.0588043
0.060503
0.0621666
0.0637928
0.0653792
0.0669237
0.0684239
0.0698778
0.0712833
0.0726383
0.073941
0.0751895
0.0763819
0.0775166
0.0785919
0.0796064
0.0805586
0.0814472
0.0822711
0.0830291
0.0837202
0.0843437
0.0848988
0.0853851
0.085802
0.0861493
0.0864269
0.086635
0.0867736
0.0868433
0.0868447
0.0867785
0.0866456
0.0864474
0.0861852
0.0858606
0.0854756
0.0850321
0.0845327
0.0839798
0.0833764
0.0827257
0.082031
0.0812963
0.0805256
0.0797232
0.0788941
0.0780432
0.0771762
0.0762988
0.0754175
0.0745388
0.07367
0.0728185
0.0719922
0.0711996
0.0704492
0.06975
0.0691112
0.0685417
0.0680504
0.0676456
0.0673349
0.0671229
0.0670138
0.0670312
0.0671902
0.00023214
0.000371361
0.000367715
0.000239847
1.36233e-05
-0.000304676
-0.000709057
-0.00119166
-0.00174418
-0.00235809
-0.00302483
-0.00373589
-0.00448293
-0.00525791
-0.00605309
-0.00686112
-0.00767503
-0.00848828
-0.00929473
-0.0100886
-0.0108646
-0.0116178
-0.0123433
-0.013037
-0.0136948
-0.0143132
-0.0148888
-0.0154187
-0.0159001
-0.0163305
-0.0167077
-0.0170296
-0.0172946
-0.0175011
-0.0176477
-0.0177333
-0.0177568
-0.0177176
-0.017615
-0.0174486
-0.017218
-0.0169232
-0.0165642
-0.0161409
-0.0156538
-0.0151031
-0.0144893
-0.0138131
-0.0130752
-0.0122763
-0.0114175
-0.0104996
-0.00952391
-0.00849151
-0.00740368
-0.00626179
-0.00506725
-0.00382155
-0.00252627
-0.00118304
0.000206445
0.00164042
0.00311707
0.0046345
0.00619076
0.00778386
0.00941176
0.0110724
0.0127636
0.0144833
0.0162292
0.0179991
0.0197907
0.0216018
0.02343
0.0252729
0.0271281
0.0289931
0.0308656
0.0327431
0.0346231
0.0365032
0.0383808
0.0402535
0.0421188
0.0439742
0.0458171
0.0476452
0.0494559
0.0512468
0.0530154
0.0547592
0.0564759
0.0581631
0.0598185
0.0614397
0.0630245
0.0645706
0.0660759
0.0675382
0.0689554
0.0703256
0.0716469
0.0729172
0.0741349
0.0752981
0.0764054
0.077455
0.0784456
0.0793758
0.0802443
0.08105
0.0817919
0.0824691
0.0830808
0.0836262
0.084105
0.0845168
0.0848613
0.0851384
0.0853483
0.0854912
0.0855676
0.0855781
0.0855234
0.0854046
0.0852229
0.0849796
0.0846764
0.0843151
0.0838978
0.0834268
0.0829047
0.0823343
0.0817187
0.0810613
0.0803657
0.0796359
0.0788762
0.0780911
0.0772856
0.0764649
0.0756347
0.0748008
0.0739698
0.0731481
0.0723429
0.0715615
0.0708116
0.0701011
0.0694382
0.0688311
0.0682881
0.0678171
0.0674259
0.0671219
0.0669101
0.0667962
0.0668063
0.0669594
0.000625815
0.000733293
0.000707666
0.000565987
0.000332395
1.36906e-05
-0.000384015
-0.000853283
-0.00138644
-0.00197575
-0.00261345
-0.00329181
-0.00400325
-0.00474041
-0.00549617
-0.00626374
-0.00703664
-0.00780876
-0.00857432
-0.00932791
-0.0100644
-0.0107791
-0.0114675
-0.0121255
-0.0127492
-0.0133353
-0.0138804
-0.0143816
-0.0148364
-0.0152422
-0.015597
-0.0158987
-0.0161455
-0.016336
-0.0164689
-0.0165428
-0.016557
-0.0165106
-0.016403
-0.0162338
-0.0160025
-0.0157092
-0.0153536
-0.0149359
-0.0144563
-0.0139152
-0.0133129
-0.0126501
-0.0119275
-0.0111457
-0.0103058
-0.00940857
-0.00845517
-0.00744671
-0.00638443
-0.00526961
-0.00410364
-0.00288795
-0.00162405
-0.000313529
0.00104198
0.00244076
0.00388105
0.00536101
0.00687875
0.00843233
0.0100198
0.0116391
0.0132881
0.0149649
0.0166672
0.0183929
0.0201397
0.0219055
0.0236879
0.0254846
0.0272932
0.0291115
0.030937
0.0327674
0.0346002
0.036433
0.0382635
0.0400892
0.0419077
0.0437164
0.0455131
0.0472953
0.0490606
0.0508065
0.0525307
0.0542309
0.0559046
0.0575497
0.0591637
0.0607445
0.0622898
0.0637975
0.0652655
0.0666917
0.0680742
0.0694108
0.0706999
0.0719395
0.0731279
0.0742634
0.0753446
0.0763698
0.0773377
0.078247
0.0790964
0.079885
0.0806116
0.0812755
0.0818759
0.0824122
0.0828839
0.0832906
0.0836323
0.0839089
0.0841204
0.0842672
0.0843497
0.0843685
0.0843245
0.0842186
0.0840521
0.0838262
0.0835427
0.0832033
0.08281
0.0823651
0.0818712
0.081331
0.0807474
0.0801238
0.0794636
0.0787708
0.0780494
0.0773038
0.0765388
0.0757592
0.0749705
0.0741783
0.0733885
0.0726073
0.0718415
0.0710977
0.070383
0.0697048
0.0690705
0.0684874
0.0679632
0.0675052
0.0671206
0.0668165
0.0665983
0.0664722
0.0664633
0.0665894
0.00114996
0.0012087
0.00114968
0.000985982
0.000737483
0.000410976
1.24976e-05
-0.000451025
-0.000972551
-0.00154503
-0.00216142
-0.00281469
-0.00349794
-0.00420443
-0.00492764
-0.00566129
-0.00639939
-0.00713624
-0.00786643
-0.00858487
-0.00928673
-0.00996749
-0.0106229
-0.011249
-0.0118422
-0.0123991
-0.0129167
-0.0133921
-0.0138227
-0.0142062
-0.0145405
-0.0148237
-0.015054
-0.0152299
-0.0153501
-0.0154136
-0.0154192
-0.0153663
-0.0152542
-0.0150824
-0.0148507
-0.0145588
-0.0142066
-0.0137943
-0.0133219
-0.0127899
-0.0121986
-0.0115485
-0.0108403
-0.0100748
-0.00925278
-0.00837513
-0.00744289
-0.00645714
-0.00541907
-0.00432993
-0.00319105
-0.00200381
-0.000769686
0.000509809
0.00183308
0.00319847
0.00460426
0.00604866
0.00752985
0.00904593
0.010595
0.012175
0.0137841
0.0154201
0.0170811
0.0187648
0.0204691
0.0221918
0.0239308
0.0256837
0.0274482
0.0292221
0.0310031
0.0327888
0.0345768
0.036365
0.0381508
0.0399319
0.041706
0.0434706
0.0452235
0.0469622
0.0486845
0.0503879
0.0520702
0.053729
0.0553621
0.0569673
0.0585423
0.0600848
0.0615929
0.0630644
0.0644972
0.0658894
0.0672389
0.0685439
0.0698026
0.0710132
0.0721741
0.0732836
0.0743401
0.0753423
0.0762889
0.0771784
0.0780099
0.0787823
0.0794945
0.0801459
0.0807356
0.0812632
0.0817281
0.0821301
0.0824691
0.0827449
0.0829578
0.083108
0.083196
0.0832224
0.083188
0.0830939
0.0829411
0.0827311
0.0824654
0.0821458
0.0817743
0.0813531
0.0808845
0.0803714
0.0798166
0.0792232
0.0785947
0.0779347
0.0772472
0.0765364
0.0758067
0.0750629
0.0743101
0.0735534
0.0727986
0.0720515
0.0713181
0.0706048
0.0699182
0.0692648
0.0686514
0.068085
0.0675722
0.06712
0.066735
0.0664238
0.066192
0.066046
0.0660069
0.0660891
0.00179069
0.00178769
0.00168555
0.00149213
0.00122154
0.000880237
0.000474039
9.27541e-06
-0.000507662
-0.00107037
-0.00167246
-0.00230755
-0.00296937
-0.00365176
-0.00434873
-0.00505452
-0.00576359
-0.00647065
-0.00717064
-0.00785878
-0.00853053
-0.0091816
-0.00980798
-0.0104059
-0.010972
-0.0115029
-0.0119958
-0.012448
-0.0128569
-0.0132203
-0.0135361
-0.0138024
-0.0140177
-0.0141804
-0.0142892
-0.014343
-0.0143409
-0.0142821
-0.014166
-0.0139921
-0.0137601
-0.0134698
-0.013121
-0.0127138
-0.0122483
-0.011725
-0.0111441
-0.0105061
-0.0098117
-0.00906158
-0.00825652
-0.00739741
-0.00648522
-0.00552099
-0.00450587
-0.00344107
-0.00232786
-0.00116759
3.83204e-05
0.0012884
0.00258112
0.00391485
0.00528793
0.00669862
0.00814515
0.00962567
0.0111383
0.0126812
0.0142523
0.0158498
0.0174715
0.0191154
0.0207794
0.0224613
0.0241591
0.0258705
0.0275932
0.0293251
0.0310639
0.0328072
0.0345529
0.0362987
0.0380422
0.0397811
0.0415132
0.0432361
0.0449476
0.0466452
0.0483268
0.0499901
0.0516327
0.0532525
0.0548473
0.0564148
0.0579528
0.0594594
0.0609323
0.0623696
0.0637693
0.0651293
0.0664479
0.0677231
0.0689532
0.0701365
0.0712714
0.0723563
0.0733898
0.0743703
0.0752968
0.0761678
0.0769824
0.0777394
0.0784381
0.0790777
0.0796573
0.0801766
0.0806351
0.0810325
0.0813687
0.0816437
0.0818577
0.0820108
0.0821037
0.0821369
0.0821113
0.0820277
0.0818874
0.0816917
0.0814421
0.0811403
0.0807883
0.0803883
0.0799425
0.0794536
0.0789244
0.0783578
0.0777573
0.0771262
0.0764684
0.0757879
0.0750888
0.0743757
0.0736534
0.0729268
0.0722012
0.0714819
0.0707747
0.0700854
0.06942
0.0687847
0.0681855
0.0676288
0.0671207
0.0666676
0.0662756
0.0659506
0.0656984
0.0655248
0.0654459
0.0654712
0.0025334
0.00245909
0.00230594
0.00207605
0.00177687
0.00141438
0.00099413
0.000521776
3.05274e-06
-0.000556271
-0.00115041
-0.0017736
-0.00242012
-0.00308439
-0.00376092
-0.00444443
-0.00512982
-0.00581217
-0.00648678
-0.00714917
-0.00779508
-0.00842047
-0.00902156
-0.00959482
-0.010137
-0.0106449
-0.011116
-0.0115474
-0.0119369
-0.0122822
-0.0125814
-0.0128327
-0.0130344
-0.0131852
-0.0132837
-0.0133289
-0.0133199
-0.0132559
-0.0131363
-0.0129606
-0.0127285
-0.0124398
-0.0120943
-0.0116921
-0.0112334
-0.0107183
-0.0101473
-0.00952085
-0.00883953
-0.00810401
-0.00731505
-0.00647351
-0.00558032
-0.00463648
-0.0036431
-0.00260135
-0.00151246
-0.000377736
0.000801455
0.00202368
0.00328745
0.00459119
0.00593329
0.00731204
0.00872573
0.0101726
0.0116507
0.0131584
0.0146936
0.0162544
0.017839
0.0194452
0.021071
0.0227144
0.0243732
0.0260453
0.0277284
0.0294205
0.0311194
0.0328227
0.0345283
0.036234
0.0379375
0.0396366
0.041329
0.0430124
0.0446847
0.0463436
0.0479868
0.0496121
0.0512173
0.0528003
0.0543588
0.0558908
0.0573941
0.0588667
0.0603066
0.0617116
0.06308
0.0644098
0.0656992
0.0669464
0.0681496
0.0693073
0.0704178
0.0714796
0.0724913
0.0734515
0.074359
0.0752126
0.0760113
0.076754
0.0774399
0.0780683
0.0786384
0.0791499
0.0796022
0.0799952
0.0803287
0.0806027
0.0808174
0.0809731
0.0810703
0.0811095
0.0810916
0.0810174
0.0808883
0.0807053
0.0804701
0.0801843
0.0798497
0.0794685
0.079043
0.0785755
0.0780689
0.077526
0.0769499
0.076344
0.075712
0.0750575
0.0743846
0.0736975
0.0730008
0.072299
0.0715971
0.0709001
0.0702132
0.0695419
0.0688917
0.0682683
0.0676771
0.0671239
0.0666144
0.0661543
0.065749
0.0654042
0.0651251
0.0649173
0.0647907
0.0647492
0.00336394
0.00321146
0.00300115
0.00272909
0.00239567
0.00200633
0.00156633
0.00108067
0.000554404
-7.30145e-06
-0.000599243
-0.00121622
-0.00185306
-0.00250469
-0.00316613
-0.00383252
-0.00449918
-0.00516156
-0.0058153
-0.0064562
-0.00708028
-0.00768378
-0.00826314
-0.00881503
-0.00933637
-0.00982425
-0.010276
-0.0106892
-0.0110615
-0.0113908
-0.0116752
-0.0119131
-0.0121027
-0.0122428
-0.0123322
-0.0123698
-0.0123546
-0.0122861
-0.0121635
-0.0119864
-0.0117545
-0.0114675
-0.0111253
-0.010728
-0.0102756
-0.00976848
-0.00920693
-0.00859143
-0.00792251
-0.00720084
-0.00642715
-0.00560224
-0.00472703
-0.00380249
-0.00282969
-0.00180974
-0.000743854
0.000366712
0.00152063
0.00271651
0.0039529
0.00522828
0.00654107
0.00788961
0.00927224
0.0106872
0.0121328
0.0136071
0.0151083
0.0166346
0.018184
0.0197546
0.0213444
0.0229512
0.0245732
0.0262081
0.0278539
0.0295084
0.0311695
0.032835
0.0345028
0.0361706
0.0378364
0.0394979
0.0411528
0.0427991
0.0444344
0.0460567
0.0476637
0.0492533
0.0508232
0.0523715
0.053896
0.0553945
0.0568652
0.0583058
0.0597145
0.0610893
0.0624283
0.0637297
0.0649917
0.0662125
0.0673905
0.0685241
0.0696117
0.0706518
0.0716431
0.0725842
0.073474
0.0743113
0.075095
0.0758242
0.0764981
0.0771159
0.0776771
0.0781811
0.0786276
0.0790162
0.079347
0.0796199
0.0798351
0.0799929
0.0800937
0.0801382
0.0801271
0.0800613
0.079942
0.0797704
0.0795479
0.0792762
0.078957
0.0785924
0.0781846
0.077736
0.0772491
0.0767267
0.0761718
0.0755876
0.0749775
0.0743451
0.0736941
0.0730286
0.0723528
0.0716711
0.0709879
0.0703079
0.0696361
0.0689773
0.0683367
0.0677195
0.0671306
0.0665753
0.0660588
0.065586
0.065162
0.0647918
0.0644802
0.0642326
0.064052
0.0639367
0.00426898
0.0040336
0.00376144
0.00344259
0.0030701
0.00264899
0.00218425
0.00168018
0.00114121
0.000571938
-2.29984e-05
-0.00063893
-0.0012712
-0.00191522
-0.00256646
-0.00322049
-0.003873
-0.00451981
-0.00515686
-0.00578026
-0.0063863
-0.00697148
-0.00753247
-0.00806615
-0.00856962
-0.00904015
-0.00947521
-0.00987245
-0.0102297
-0.0105449
-0.0108164
-0.0110424
-0.0112214
-0.0113521
-0.0114334
-0.0114643
-0.0114438
-0.0113713
-0.0112463
-0.0110681
-0.0108366
-0.0105515
-0.0102126
-0.00981998
-0.00937379
-0.00887426
-0.00832173
-0.00771663
-0.00705949
-0.00635094
-0.00559168
-0.00478252
-0.00392431
-0.00301801
-0.00206464
-0.00106529
-2.11279e-05
0.00106662
0.00219668
0.00336769
0.00457823
0.00582683
0.00711193
0.00843196
0.00978525
0.0111701
0.0125849
0.0140278
0.0154969
0.0169906
0.0185069
0.0200438
0.0215995
0.023172
0.0247592
0.0263591
0.0279696
0.0295886
0.0312142
0.032844
0.0344762
0.0361084
0.0377386
0.0393646
0.0409843
0.0425955
0.0441961
0.045784
0.0473569
0.0489129
0.0504498
0.0519655
0.0534579
0.0549251
0.056365
0.0577756
0.0591551
0.0605015
0.061813
0.0630878
0.0643241
0.0655202
0.0666746
0.0677856
0.0688517
0.0698716
0.0708438
0.071767
0.0726402
0.0734621
0.0742318
0.0749484
0.075611
0.0762189
0.0767716
0.0772685
0.0777094
0.0780939
0.0784219
0.0786936
0.078909
0.0790684
0.0791723
0.0792213
0.0792162
0.0791577
0.079047
0.0788853
0.078674
0.0784146
0.0781089
0.0777588
0.0773664
0.076934
0.0764641
0.0759593
0.0754224
0.0748566
0.0742649
0.0736508
0.0730178
0.0723698
0.0717106
0.0710443
0.0703752
0.0697075
0.0690458
0.0683945
0.0677585
0.0671422
0.0665506
0.065988
0.0654593
0.064969
0.0645213
0.0641208
0.063772
0.0634799
0.0632405
0.0630464
0.00523619
0.00491476
0.00457733
0.00420797
0.00379244
0.00333537
0.00284152
0.00231457
0.00175833
0.00117685
0.000574253
-4.53024e-05
-0.000677645
-0.00131863
-0.00196416
-0.00261019
-0.00325278
-0.00388807
-0.00451232
-0.00512193
-0.00571348
-0.0062837
-0.00682948
-0.00734794
-0.00783634
-0.00829211
-0.00871288
-0.00909642
-0.00944066
-0.00974372
-0.0100039
-0.0102195
-0.0103893
-0.0105118
-0.0105861
-0.0106112
-0.0105862
-0.0105104
-0.0103834
-0.0102046
-0.00997367
-0.00969048
-0.00935489
-0.00896693
-0.0085267
-0.00803446
-0.00749051
-0.0068953
-0.00624933
-0.00555319
-0.00480759
-0.00401329
-0.00317113
-0.00228204
-0.00134701
-0.000367086
0.000656593
0.00172284
0.0028304
0.00397797
0.00516415
0.0063875
0.00764653
0.00893967
0.0102653
0.0116219
0.0130076
0.0144208
0.0158598
0.0173227
0.0188078
0.0203131
0.0218367
0.0233768
0.0249313
0.0264982
0.0280755
0.0296612
0.0312533
0.0328497
0.0344482
0.036047
0.0376437
0.0392365
0.040823
0.0424014
0.0439694
0.0455249
0.0470659
0.0485904
0.0500962
0.0515813
0.0530438
0.0544815
0.0558927
0.0572752
0.0586274
0.0599472
0.061233
0.0624828
0.0636952
0.0648682
0.0660005
0.0670904
0.0681365
0.0691374
0.0700918
0.0709984
0.071856
0.0726636
0.0734202
0.0741249
0.0747769
0.0753756
0.0759202
0.0764105
0.076846
0.0772264
0.0775518
0.0778221
0.0780374
0.0781981
0.0783046
0.0783574
0.0783573
0.0783051
0.0782018
0.0780487
0.077847
0.0775983
0.0773042
0.0769665
0.0765873
0.0761688
0.0757133
0.0752232
0.0747014
0.0741507
0.0735741
0.0729749
0.0723562
0.0717218
0.0710751
0.0704202
0.0697608
0.0691009
0.0684448
0.0677965
0.0671603
0.0665405
0.0659413
0.0653669
0.0648216
0.0643091
0.0638336
0.0633985
0.0630086
0.0626682
0.0623664
0.0620901
0.00625424
0.00584485
0.00543971
0.00501698
0.00455518
0.00405861
0.00353194
0.00297821
0.00240067
0.00180287
0.00118843
0.000561043
-7.55679e-05
-0.000717681
-0.00136159
-0.00200361
-0.00264014
-0.00326765
-0.00388271
-0.00448199
-0.00506235
-0.00562074
-0.00615432
-0.00666036
-0.00713632
-0.00757981
-0.00798858
-0.00836054
-0.00869374
-0.00898641
-0.00923689
-0.00944369
-0.00960548
-0.00972105
-0.00978936
-0.0098095
-0.00978068
-0.00970226
-0.0095737
-0.00939457
-0.00916455
-0.00888345
-0.00855117
-0.00816773
-0.00773326
-0.00724798
-0.00671223
-0.0061264
-0.005491
-0.00480661
-0.0040739
-0.00329362
-0.00246659
-0.00159371
-0.000675933
0.000285703
0.00129011
0.00233612
0.00342253
0.00454804
0.00571131
0.00691093
0.00814543
0.00941329
0.010713
0.0120429
0.0134013
0.0147867
0.0161973
0.0176313
0.0190871
0.0205626
0.0220561
0.0235657
0.0250895
0.0266254
0.0281716
0.0297261
0.0312867
0.0328516
0.0344188
0.0359861
0.0375515
0.0391131
0.0406686
0.0422161
0.0437536
0.0452789
0.04679
0.048285
0.0497618
0.0512183
0.0526527
0.054063
0.0554473
0.0568037
0.0581303
0.0594254
0.0606871
0.0619138
0.0631037
0.0642553
0.065367
0.0664373
0.0674648
0.068448
0.0693858
0.0702768
0.07112
0.0719143
0.0726587
0.0733523
0.0739945
0.0745844
0.0751215
0.0756055
0.0760358
0.0764124
0.0767351
0.0770038
0.0772189
0.0773804
0.0774889
0.0775449
0.077549
0.0775021
0.0774052
0.0772593
0.0770658
0.0768261
0.0765418
0.0762147
0.0758466
0.0754396
0.074996
0.0745182
0.0740087
0.0734702
0.0729055
0.0723177
0.07171
0.0710855
0.0704477
0.0698001
0.0691465
0.0684905
0.0678357
0.0671862
0.0665457
0.0659181
0.0653072
0.0647169
0.0641508
0.0636125
0.0631052
0.0626322
0.0621978
0.0618061
0.0614395
0.0610788
0.00731283
0.00681448
0.00633998
0.00586172
0.00535106
0.00481211
0.00424944
0.00366556
0.00306322
0.00244545
0.00181545
0.00117647
0.000531806
-0.000115195
-0.000761186
-0.00140284
-0.00203686
-0.00266003
-0.00326921
-0.00386138
-0.00443361
-0.00498313
-0.00550728
-0.00600355
-0.00646956
-0.00690309
-0.00730204
-0.00766443
-0.00798845
-0.00827242
-0.00851478
-0.00871414
-0.00886923
-0.00897893
-0.00904224
-0.00905831
-0.00902641
-0.00894591
-0.0088163
-0.00863719
-0.00840828
-0.00812937
-0.0078004
-0.00742139
-0.00699248
-0.00651388
-0.00598592
-0.00540899
-0.00478359
-0.00411028
-0.00338973
-0.00262265
-0.00180985
-0.000952202
-5.06434e-05
0.000893823
0.00188013
0.00290716
0.00397371
0.00507854
0.00622031
0.00739766
0.00860915
0.0098533
0.0111286
0.0124335
0.0137664
0.0151257
0.0165097
0.0179166
0.0193449
0.0207925
0.0222579
0.0237389
0.0252339
0.0267409
0.0282579
0.029783
0.0313143
0.0328498
0.0343876
0.0359255
0.0374617
0.038994
0.0405206
0.0420394
0.0435483
0.0450454
0.0465286
0.0479961
0.0494458
0.0508757
0.052284
0.0536688
0.0550281
0.0563601
0.057663
0.058935
0.0601744
0.0613795
0.0625487
0.0636803
0.0647729
0.065825
0.0668352
0.0678021
0.0687244
0.0696011
0.0704309
0.0712128
0.0719458
0.0726292
0.0732621
0.0738439
0.074374
0.074852
0.0752775
0.0756503
0.0759703
0.0762375
0.0764519
0.076614
0.076724
0.0767825
0.07679
0.0767475
0.0766559
0.0765161
0.0763294
0.0760973
0.0758211
0.0755026
0.0751436
0.0747461
0.0743121
0.073844
0.0733441
0.0728149
0.0722593
0.07168
0.0710799
0.070462
0.0698296
0.0691859
0.0685344
0.0678784
0.0672213
0.0665667
0.0659181
0.0652789
0.0646527
0.0640428
0.0634524
0.0628847
0.0623426
0.0618286
0.061347
0.0609019
0.0604686
0.0600224
0.00840257
0.00781496
0.0072701
0.00673472
0.00617318
0.00558948
0.00498817
0.00437128
0.00374106
0.00310014
0.00245128
0.00179734
0.00114124
0.000485972
-0.000165454
-0.000810029
-0.00144478
-0.00206677
-0.00267316
-0.00326117
-0.00382814
-0.00437151
-0.00488885
-0.00537782
-0.00583622
-0.00626198
-0.00665314
-0.00700787
-0.00732446
-0.00760134
-0.00783706
-0.00803031
-0.0081799
-0.00828479
-0.00834404
-0.00835686
-0.00832256
-0.00824054
-0.00811034
-0.00793158
-0.00770398
-0.00742738
-0.00710173
-0.00672706
-0.0063035
-0.00583129
-0.00531073
-0.00474223
-0.00412627
-0.0034634
-0.00275428
-0.0019996
-0.00120016
-0.000356798
0.000529564
0.00145795
0.00242732
0.00343657
0.00448455
0.00557001
0.00669167
0.00784818
0.00903814
0.0102601
0.0115126
0.0127942
0.0141032
0.015438
0.0167971
0.0181788
0.0195814
0.021003
0.022442
0.0238964
0.0253645
0.0268444
0.0283342
0.0298321
0.031336
0.032844
0.0343543
0.0358649
0.0373738
0.038879
0.0403786
0.0418705
0.0433529
0.0448238
0.0462812
0.0477231
0.0491476
0.0505529
0.0519369
0.0532979
0.0546341
0.0559435
0.0572244
0.0584751
0.0596938
0.060879
0.062029
0.0631422
0.0642171
0.0652524
0.0662466
0.0671984
0.0681065
0.0689699
0.0697873
0.0705577
0.0712803
0.0719542
0.0725786
0.0731528
0.0736763
0.0741487
0.0745696
0.0749388
0.0752561
0.0755216
0.0757354
0.0758976
0.0760086
0.076069
0.0760793
0.0760403
0.0759529
0.0758181
0.0756369
0.0754108
0.0751412
0.0748297
0.0744779
0.0740877
0.0736612
0.0732005
0.0727077
0.0721854
0.0716361
0.0710623
0.0704668
0.0698525
0.0692223
0.0685792
0.0679264
0.067267
0.0666042
0.0659411
0.0652809
0.0646268
0.0639818
0.0633491
0.0627313
0.0621314
0.0615517
0.0609943
0.0604635
0.0599633
0.0594621
0.05893
0.00951496
0.00883829
0.00822255
0.00762895
0.00701499
0.00638464
0.0057425
0.00509016
0.00442943
0.00376256
0.00309194
0.00242006
0.00174951
0.00108295
0.000423068
-0.000227426
-0.000865852
-0.00148956
-0.00209598
-0.00268258
-0.00324693
-0.00378671
-0.00429965
-0.00478363
-0.0052366
-0.00565664
-0.00604193
-0.00639077
-0.00670158
-0.0069729
-0.00720337
-0.00739178
-0.00753701
-0.0076381
-0.00769419
-0.00770453
-0.00766847
-0.00758548
-0.0074551
-0.00727699
-0.00705091
-0.00677672
-0.00645439
-0.00608395
-0.00566556
-0.00519944
-0.00468592
-0.00412538
-0.00351831
-0.00286525
-0.00216685
-0.00142379
-0.000636848
0.000193153
0.00106532
0.00197869
0.00293225
0.00392492
0.00495555
0.00602295
0.00712585
0.00826293
0.00943283
0.0106341
0.0118654
0.0131251
0.0144119
0.015724
0.01706
0.0184181
0.0197967
0.0211941
0.0226085
0.0240382
0.0254813
0.0269361
0.0284005
0.029873
0.0313514
0.032834
0.0343188
0.0358039
0.0372875
0.0387675
0.0402421
0.0417093
0.0431671
0.0446136
0.046047
0.0474653
0.0488666
0.050249
0.0516106
0.0529497
0.0542645
0.055553
0.0568137
0.0580447
0.0592444
0.0604112
0.0615435
0.0626398
0.0636985
0.0647183
0.0656978
0.0666358
0.0675309
0.068382
0.069188
0.069948
0.0706609
0.071326
0.0719425
0.0725098
0.0730272
0.0734944
0.073911
0.0742767
0.0745914
0.0748552
0.0750679
0.07523
0.0753417
0.0754034
0.0754158
0.0753795
0.0752954
0.0751644
0.0749876
0.0747663
0.0745017
0.0741955
0.0738491
0.0734645
0.0730433
0.0725878
0.0720999
0.071582
0.0710364
0.0704655
0.069872
0.0692583
0.0686274
0.0679819
0.0673247
0.0666588
0.0659871
0.0653123
0.0646375
0.0639654
0.0632988
0.0626403
0.0619926
0.0613579
0.0607383
0.0601355
0.0595539
0.0589973
0.0584277
0.0578096
0.0106422
0.00987709
0.00919036
0.00853781
0.0078703
0.0071918
0.00650702
0.00581718
0.00512369
0.00442845
0.00373352
0.00304109
0.00235341
0.00167285
0.00100181
0.000342688
-0.000302101
-0.00093018
-0.00153921
-0.00212693
-0.00269111
-0.00322964
-0.00374044
-0.00422157
-0.00467113
-0.00508736
-0.00546858
-0.00581321
-0.0061198
-0.00638698
-0.00661351
-0.00679826
-0.00694021
-0.00703847
-0.00709224
-0.00710082
-0.00706362
-0.00698014
-0.00684998
-0.00667281
-0.00644844
-0.00617675
-0.00585772
-0.00549142
-0.00507799
-0.00461768
-0.00411081
-0.00355778
-0.00295906
-0.0023152
-0.00162682
-0.000894613
-0.000119327
0.000698226
0.00155717
0.00245657
0.00339542
0.00437267
0.0053872
0.00643781
0.00752327
0.00864229
0.00979354
0.0109756
0.0121872
0.0134267
0.0146928
0.0159838
0.0172983
0.0186345
0.019991
0.0213659
0.0227576
0.0241643
0.0255842
0.0270156
0.0284567
0.0299056
0.0313604
0.0328194
0.0342807
0.0357424
0.0372025
0.0386593
0.0401108
0.041555
0.0429902
0.0444143
0.0458256
0.0472221
0.048602
0.0499633
0.0513044
0.0526234
0.0539185
0.0551879
0.05643
0.057643
0.0588253
0.0599753
0.0610914
0.0621722
0.0632161
0.0642218
0.0651879
0.0661131
0.0669963
0.0678363
0.068632
0.0693823
0.0700865
0.0707436
0.0713529
0.0719137
0.0724255
0.0728878
0.0733004
0.0736628
0.073975
0.074237
0.0744487
0.0746103
0.0747223
0.0747849
0.0747987
0.0747643
0.0746826
0.0745545
0.0743809
0.074163
0.0739021
0.0735996
0.0732571
0.0728761
0.0724585
0.0720062
0.071521
0.0710052
0.0704609
0.0698905
0.0692963
0.0686808
0.0680464
0.0673957
0.0667314
0.0660562
0.0653727
0.0646835
0.0639912
0.0632983
0.0626075
0.0619208
0.0612407
0.0605692
0.0599079
0.0592582
0.0586245
0.0580107
0.0573724
0.0566689
0.0117774
0.0109246
0.010167
0.00945514
0.00873326
0.00800546
0.00727659
0.00654753
0.00581936
0.00509367
0.00437224
0.00365696
0.00294979
0.00225283
0.00156818
0.000897989
0.000244398
-0.000390462
-0.00100449
-0.00159564
-0.0021619
-0.00270134
-0.00321209
-0.00369234
-0.00414038
-0.00455458
-0.0049334
-0.00527538
-0.00557918
-0.00584357
-0.00606739
-0.0062496
-0.00638928
-0.00648561
-0.00653784
-0.00654535
-0.00650759
-0.00642409
-0.0062945
-0.00611855
-0.00589605
-0.00562693
-0.00531118
-0.00494889
-0.00454023
-0.00408544
-0.00358485
-0.00303887
-0.00244796
-0.00181269
-0.00113365
-0.000411537
0.00035292
0.00115892
0.00200561
0.00289206
0.00381729
0.00478027
0.00577987