/*--------------------------------*- C++ -*----------------------------------*\
  =========                 |
  \\      /  F ield         | OpenFOAM: The Open Source CFD Toolbox
   \\    /   O peration     | Website:  https://openfoam.org
    \\  /    A nd           | Version:  7
     \\/     M anipulation  |
\*---------------------------------------------------------------------------*/
FoamFile
{
    version     2.0;
    format      ascii;
    class       surfaceScalarField;
    location    "0.35";
    object      phi;
}
// * * * * * * * * * * * * * * * * * * * * * * * * * * * * * * * * * * * * * //

dimensions      [0 3 -1 0 0 0 0];

internalField   nonuniform List<scalar> 
50880
(
5.66966e-12
-6.55949e-12
3.60595e-11
-3.03799e-11
8.10319e-11
-4.49607e-11
1.30698e-10
-4.96633e-11
1.77948e-10
-4.72549e-11
2.17822e-10
-3.98795e-11
2.46896e-10
-2.90766e-11
2.62858e-10
-1.59593e-11
2.64178e-10
-1.31727e-12
2.49892e-10
1.42888e-11
2.1944e-10
3.04538e-11
1.72562e-10
4.68796e-11
1.09221e-10
6.33423e-11
2.95518e-11
7.96716e-11
-6.61844e-11
9.57369e-11
-1.77623e-10
1.11438e-10
-3.0432e-10
1.26697e-10
-4.45773e-10
1.41453e-10
-6.01432e-10
1.55659e-10
-7.7071e-10
1.69278e-10
-9.52992e-10
1.82283e-10
-1.14764e-09
1.94652e-10
-1.35401e-09
2.0637e-10
-1.57144e-09
2.17424e-10
-1.79925e-09
2.27809e-10
-2.03677e-09
2.37519e-10
-2.28332e-09
2.46553e-10
-2.53823e-09
2.54912e-10
-2.80083e-09
2.62599e-10
-3.07045e-09
2.69618e-10
-3.34642e-09
2.75974e-10
-3.62809e-09
2.81674e-10
-3.91482e-09
2.86725e-10
-4.20595e-09
2.91135e-10
-4.50086e-09
2.94914e-10
-4.79893e-09
2.9807e-10
-5.09955e-09
3.00615e-10
-5.40211e-09
3.02559e-10
-5.70602e-09
3.03912e-10
-6.01071e-09
3.04688e-10
-6.3156e-09
3.04896e-10
-6.62015e-09
3.0455e-10
-6.92381e-09
3.03661e-10
-7.22605e-09
3.02241e-10
-7.52636e-09
3.00303e-10
-7.82422e-09
2.97859e-10
-8.11914e-09
2.94922e-10
-8.41065e-09
2.91504e-10
-8.69827e-09
2.87619e-10
-8.98155e-09
2.8328e-10
-9.26005e-09
2.78499e-10
-9.53334e-09
2.7329e-10
-9.801e-09
2.67665e-10
-1.00626e-08
2.61637e-10
-1.03179e-08
2.5522e-10
-1.05663e-08
2.48427e-10
-1.08076e-08
2.41271e-10
-1.10413e-08
2.33766e-10
-1.12673e-08
2.25923e-10
-1.1485e-08
2.17758e-10
-1.16943e-08
2.09282e-10
-1.18948e-08
2.00509e-10
-1.20863e-08
1.91453e-10
-1.22684e-08
1.82127e-10
-1.24409e-08
1.72545e-10
-1.26037e-08
1.62721e-10
-1.27563e-08
1.52668e-10
-1.28987e-08
1.424e-10
-1.30306e-08
1.3193e-10
-1.31519e-08
1.21272e-10
-1.32624e-08
1.10442e-10
-1.33618e-08
9.94514e-11
-1.34501e-08
8.83158e-11
-1.35272e-08
7.70494e-11
-1.35928e-08
6.56666e-11
-1.3647e-08
5.4182e-11
-1.36896e-08
4.26104e-11
-1.37206e-08
3.09666e-11
-1.37399e-08
1.92656e-11
-1.37474e-08
7.5224e-12
-1.37431e-08
-4.24768e-12
-1.37271e-08
-1.60293e-11
-1.36993e-08
-2.7807e-11
-1.36597e-08
-3.9565e-11
-1.36085e-08
-5.12876e-11
-1.35455e-08
-6.29588e-11
-1.34709e-08
-7.45625e-11
-1.33849e-08
-8.60825e-11
-1.32874e-08
-9.75025e-11
-1.31785e-08
-1.08806e-10
-1.30586e-08
-1.19976e-10
-1.29276e-08
-1.30997e-10
-1.27857e-08
-1.41851e-10
-1.26332e-08
-1.52521e-10
-1.24702e-08
-1.62991e-10
-1.2297e-08
-1.73244e-10
-1.21137e-08
-1.83263e-10
-1.19207e-08
-1.9303e-10
-1.17181e-08
-2.02528e-10
-1.15064e-08
-2.11741e-10
-1.12857e-08
-2.20651e-10
-1.10565e-08
-2.29242e-10
-1.0819e-08
-2.37496e-10
-1.05736e-08
-2.45396e-10
-1.03207e-08
-2.52925e-10
-1.00606e-08
-2.60068e-10
-9.79381e-09
-2.66806e-10
-9.52069e-09
-2.73125e-10
-9.24168e-09
-2.79008e-10
-8.95724e-09
-2.84438e-10
-8.66784e-09
-2.89401e-10
-8.37396e-09
-2.9388e-10
-8.0761e-09
-2.97861e-10
-7.77477e-09
-3.01329e-10
-7.4705e-09
-3.0427e-10
-7.16383e-09
-3.06669e-10
-6.85532e-09
-3.08514e-10
-6.54553e-09
-3.0979e-10
-6.23504e-09
-3.10485e-10
-5.92445e-09
-3.10589e-10
-5.61437e-09
-3.10088e-10
-5.30539e-09
-3.08972e-10
-4.99816e-09
-3.07232e-10
-4.6933e-09
-3.04857e-10
-4.39146e-09
-3.0184e-10
-4.09329e-09
-2.98171e-10
-3.79945e-09
-2.93845e-10
-3.51059e-09
-2.88856e-10
-3.22739e-09
-2.83198e-10
-2.95053e-09
-2.76867e-10
-2.68066e-09
-2.69862e-10
-2.41848e-09
-2.62181e-10
-2.16466e-09
-2.53825e-10
-1.91986e-09
-2.44795e-10
-1.68476e-09
-2.35096e-10
-1.46003e-09
-2.24733e-10
-1.24631e-09
-2.13716e-10
-1.04426e-09
-2.02056e-10
-8.54489e-10
-1.89767e-10
-6.77619e-10
-1.76869e-10
-5.14234e-10
-1.63385e-10
-3.6489e-10
-1.49344e-10
-2.30108e-10
-1.34782e-10
-1.10363e-10
-1.19744e-10
-6.07635e-12
-1.04286e-10
8.24016e-11
-8.84765e-11
1.54804e-10
-7.24013e-11
2.10974e-10
-5.61687e-11
2.50891e-10
-3.9916e-11
2.74711e-10
-2.38202e-11
2.82823e-10
-8.11147e-12
2.75916e-10
6.90647e-12
2.55088e-10
2.08268e-11
2.21996e-10
3.30928e-11
1.79073e-10
4.29253e-11
1.29848e-10
4.92308e-11
7.93385e-11
5.05102e-11
3.46152e-11
4.47094e-11
5.3306e-12
2.92566e-11
5.31356e-12
2.99208e-11
-3.64696e-11
1.01061e-10
-1.01503e-10
1.95339e-10
-1.39245e-10
2.9567e-10
-1.50005e-10
3.87699e-10
-1.39291e-10
4.60194e-10
-1.12373e-10
5.04695e-10
-7.35726e-11
5.15014e-10
-2.62744e-11
4.86761e-10
2.6938e-11
4.16938e-10
8.41141e-11
3.03624e-10
1.43771e-10
1.45734e-10
2.04773e-10
-5.71652e-11
2.66245e-10
-3.04998e-10
3.27507e-10
-5.97286e-10
3.88025e-10
-9.33231e-10
4.47382e-10
-1.31178e-09
5.05248e-10
-1.73169e-09
5.6136e-10
-2.19154e-09
6.15513e-10
-2.6898e-09
6.67542e-10
-3.22484e-09
7.1732e-10
-3.79493e-09
7.64748e-10
-4.39831e-09
8.09749e-10
-5.03315e-09
8.52266e-10
-5.69761e-09
8.9226e-10
-6.38979e-09
9.29705e-10
-7.10782e-09
9.64584e-10
-7.8498e-09
9.96891e-10
-8.61383e-09
1.02663e-09
-9.39802e-09
1.05381e-09
-1.02005e-08
1.07844e-09
-1.10194e-08
1.10055e-09
-1.18528e-08
1.12016e-09
-1.26989e-08
1.13729e-09
-1.3556e-08
1.15198e-09
-1.44222e-08
1.16427e-09
-1.52958e-08
1.17418e-09
-1.6175e-08
1.18176e-09
-1.70581e-08
1.18705e-09
-1.79435e-08
1.19009e-09
-1.88296e-08
1.19093e-09
-1.97146e-08
1.1896e-09
-2.05971e-08
1.18616e-09
-2.14755e-08
1.18064e-09
-2.23483e-08
1.17311e-09
-2.3214e-08
1.1636e-09
-2.40713e-08
1.15216e-09
-2.49186e-08
1.13884e-09
-2.57547e-08
1.1237e-09
-2.65782e-08
1.10678e-09
-2.73878e-08
1.08813e-09
-2.81824e-08
1.06781e-09
-2.89605e-08
1.04585e-09
-2.97212e-08
1.02232e-09
-3.04633e-08
9.97266e-10
-3.11856e-08
9.70737e-10
-3.18871e-08
9.42784e-10
-3.25668e-08
9.13461e-10
-3.32237e-08
8.82818e-10
-3.38568e-08
8.50908e-10
-3.44653e-08
8.17782e-10
-3.50483e-08
7.83494e-10
-3.5605e-08
7.48095e-10
-3.61345e-08
7.11639e-10
-3.66361e-08
6.74179e-10
-3.71092e-08
6.35768e-10
-3.7553e-08
5.96461e-10
-3.79669e-08
5.56311e-10
-3.83503e-08
5.15372e-10
-3.87027e-08
4.737e-10
-3.90236e-08
4.31348e-10
-3.93126e-08
3.88374e-10
-3.95691e-08
3.44832e-10
-3.97928e-08
3.00779e-10
-3.99834e-08
2.56272e-10
-4.01406e-08
2.11369e-10
-4.02641e-08
1.66126e-10
-4.03538e-08
1.20604e-10
-4.04094e-08
7.48594e-11
-4.04308e-08
2.89528e-11
-4.0418e-08
-1.70562e-11
-4.03709e-08
-6.31071e-11
-4.02896e-08
-1.09139e-10
-4.0174e-08
-1.55091e-10
-4.00244e-08
-2.00899e-10
-3.98409e-08
-2.46503e-10
-3.96236e-08
-2.91839e-10
-3.93729e-08
-3.36843e-10
-3.90889e-08
-3.81451e-10
-3.87721e-08
-4.256e-10
-3.84229e-08
-4.69223e-10
-3.80416e-08
-5.12256e-10
-3.76288e-08
-5.54634e-10
-3.7185e-08
-5.9629e-10
-3.67109e-08
-6.37159e-10
-3.62069e-08
-6.77173e-10
-3.56739e-08
-7.16268e-10
-3.51126e-08
-7.54375e-10
-3.45237e-08
-7.91428e-10
-3.39081e-08
-8.27362e-10
-3.32666e-08
-8.62109e-10
-3.26003e-08
-8.95603e-10
-3.191e-08
-9.27778e-10
-3.11968e-08
-9.5857e-10
-3.04618e-08
-9.87911e-10
-2.97061e-08
-1.01574e-09
-2.8931e-08
-1.04199e-09
-2.81375e-08
-1.0666e-09
-2.7327e-08
-1.0895e-09
-2.65008e-08
-1.11064e-09
-2.56603e-08
-1.12995e-09
-2.48068e-08
-1.14738e-09
-2.39418e-08
-1.16286e-09
-2.30667e-08
-1.17635e-09
-2.21832e-08
-1.18778e-09
-2.12928e-08
-1.1971e-09
-2.03971e-08
-1.20426e-09
-1.94976e-08
-1.20921e-09
-1.85962e-08
-1.21191e-09
-1.76945e-08
-1.2123e-09
-1.67943e-08
-1.21035e-09
-1.58972e-08
-1.20601e-09
-1.50052e-08
-1.19925e-09
-1.412e-08
-1.19003e-09
-1.32435e-08
-1.17832e-09
-1.23776e-08
-1.1641e-09
-1.15241e-08
-1.14734e-09
-1.0685e-08
-1.12802e-09
-9.86203e-09
-1.10612e-09
-9.05726e-09
-1.08164e-09
-8.27256e-09
-1.05456e-09
-7.50984e-09
-1.0249e-09
-6.77102e-09
-9.92646e-10
-6.05799e-09
-9.57826e-10
-5.37262e-09
-9.20458e-10
-4.71678e-09
-8.80574e-10
-4.09228e-09
-8.38216e-10
-3.50089e-09
-7.93439e-10
-2.94435e-09
-7.4631e-10
-2.4243e-09
-6.96916e-10
-1.94233e-09
-6.4536e-10
-1.4999e-09
-5.91772e-10
-1.09837e-09
-5.3631e-10
-7.38944e-10
-4.79166e-10
-4.22651e-10
-4.20577e-10
-1.50292e-10
-3.60833e-10
7.76005e-11
-3.00292e-10
2.60831e-10
-2.39398e-10
3.99622e-10
-1.78706e-10
4.94718e-10
-1.18918e-10
5.47527e-10
-6.09218e-11
5.60297e-10
-5.86136e-12
5.36345e-10
4.47831e-11
4.80356e-10
8.90816e-11
3.98766e-10
1.24509e-10
3.00206e-10
1.47787e-10
1.95948e-10
1.54785e-10
1.0015e-10
1.40555e-10
2.92945e-11
1.0018e-10
3.4588e-11
4.47844e-11
-8.12436e-11
1.39037e-10
-1.95754e-10
2.56261e-10
-2.56482e-10
3.74821e-10
-2.68577e-10
4.76435e-10
-2.4091e-10
5.46229e-10
-1.82164e-10
5.7249e-10
-9.983e-11
5.46264e-10
-4.56679e-14
4.60918e-10
1.12285e-10
3.11713e-10
2.3332e-10
9.54567e-11
3.60029e-10
-1.89801e-10
4.90034e-10
-5.45011e-10
6.21456e-10
-9.70315e-10
7.5281e-10
-1.4652e-09
8.82914e-10
-2.02865e-09
1.01082e-09
-2.65918e-09
1.13578e-09
-3.355e-09
1.25718e-09
-4.11404e-09
1.37455e-09
-4.93398e-09
1.48749e-09
-5.81235e-09
1.59569e-09
-6.74651e-09
1.69891e-09
-7.73374e-09
1.79697e-09
-8.77119e-09
1.88972e-09
-9.85597e-09
1.97704e-09
-1.09851e-08
2.05888e-09
-1.21557e-08
2.13516e-09
-1.33647e-08
2.20588e-09
-1.46091e-08
2.27102e-09
-1.58859e-08
2.33059e-09
-1.71921e-08
2.38462e-09
-1.85246e-08
2.43313e-09
-1.98807e-08
2.47618e-09
-2.12572e-08
2.51382e-09
-2.26513e-08
2.5461e-09
-2.40601e-08
2.57311e-09
-2.54809e-08
2.59491e-09
-2.69107e-08
2.61159e-09
-2.83469e-08
2.62323e-09
-2.97867e-08
2.62992e-09
-3.12275e-08
2.63175e-09
-3.26667e-08
2.62882e-09
-3.41018e-08
2.62122e-09
-3.55302e-08
2.60906e-09
-3.69496e-08
2.59243e-09
-3.83574e-08
2.57144e-09
-3.97514e-08
2.5462e-09
-4.11294e-08
2.51681e-09
-4.24891e-08
2.48338e-09
-4.38283e-08
2.44602e-09
-4.5145e-08
2.40484e-09
-4.64372e-08
2.35995e-09
-4.77028e-08
2.31145e-09
-4.89399e-08
2.25947e-09
-5.01468e-08
2.20411e-09
-5.13215e-08
2.14549e-09
-5.24625e-08
2.08371e-09
-5.35679e-08
2.01891e-09
-5.46363e-08
1.95118e-09
-5.5666e-08
1.88064e-09
-5.66556e-08
1.80741e-09
-5.76038e-08
1.73161e-09
-5.8509e-08
1.65335e-09
-5.93701e-08
1.57275e-09
-6.01859e-08
1.48992e-09
-6.09551e-08
1.40499e-09
-6.16767e-08
1.31808e-09
-6.23497e-08
1.2293e-09
-6.29731e-08
1.13878e-09
-6.3546e-08
1.04663e-09
-6.40677e-08
9.52978e-10
-6.45372e-08
8.57951e-10
-6.49541e-08
7.61671e-10
-6.53176e-08
6.64263e-10
-6.56272e-08
5.65853e-10
-6.58823e-08
4.66568e-10
-6.60828e-08
3.66537e-10
-6.6228e-08
2.65889e-10
-6.63179e-08
1.64756e-10
-6.63523e-08
6.32671e-11
-6.63309e-08
-3.8443e-11
-6.62537e-08
-1.40241e-10
-6.61209e-08
-2.41991e-10
-6.59324e-08
-3.43557e-10
-6.56885e-08
-4.44802e-10
-6.53894e-08
-5.45587e-10
-6.50355e-08
-6.45773e-10
-6.46271e-08
-7.45218e-10
-6.41648e-08
-8.43782e-10
-6.36491e-08
-9.41322e-10
-6.30806e-08
-1.03769e-09
-6.24601e-08
-1.13275e-09
-6.17884e-08
-1.22636e-09
-6.10663e-08
-1.31836e-09
-6.02949e-08
-1.40861e-09
-5.94751e-08
-1.49697e-09
-5.8608e-08
-1.58329e-09
-5.7695e-08
-1.66742e-09
-5.67372e-08
-1.74922e-09
-5.5736e-08
-1.82853e-09
-5.46929e-08
-1.90522e-09
-5.36094e-08
-1.97914e-09
-5.2487e-08
-2.05013e-09
-5.13275e-08
-2.11807e-09
-5.01326e-08
-2.1828e-09
-4.89042e-08
-2.24418e-09
-4.76441e-08
-2.30207e-09
-4.63544e-08
-2.35634e-09
-4.5037e-08
-2.40684e-09
-4.36942e-08
-2.45345e-09
-4.23281e-08
-2.49602e-09
-4.09411e-08
-2.53444e-09
-3.95354e-08
-2.56857e-09
-3.81134e-08
-2.59829e-09
-3.66777e-08
-2.62348e-09
-3.52308e-08
-2.64402e-09
-3.37752e-08
-2.65981e-09
-3.23137e-08
-2.67073e-09
-3.08489e-08
-2.67669e-09
-2.93837e-08
-2.67758e-09
-2.79207e-08
-2.67332e-09
-2.64629e-08
-2.66382e-09
-2.50131e-08
-2.64899e-09
-2.35744e-08
-2.62878e-09
-2.21496e-08
-2.6031e-09
-2.07418e-08
-2.57192e-09
-1.9354e-08
-2.53517e-09
-1.79892e-08
-2.49282e-09
-1.66504e-08
-2.44485e-09
-1.53408e-08
-2.39123e-09
-1.40634e-08
-2.33196e-09
-1.28213e-08
-2.26705e-09
-1.16174e-08
-2.19652e-09
-1.04548e-08
-2.12042e-09
-9.33648e-09
-2.0388e-09
-8.26531e-09
-1.95175e-09
-7.24416e-09
-1.85937e-09
-6.2758e-09
-1.76179e-09
-5.36291e-09
-1.6592e-09
-4.50805e-09
-1.55178e-09
-3.71361e-09
-1.43979e-09
-2.98184e-09
-1.32354e-09
-2.31476e-09
-1.2034e-09
-1.71412e-09
-1.07981e-09
-1.18137e-09
-9.5332e-10
-7.17606e-10
-8.24596e-10
-3.23449e-10
-6.94446e-10
1.02089e-12
-5.63865e-10
2.56396e-10
-4.3408e-10
4.44087e-10
-3.0661e-10
5.66518e-10
-1.83355e-10
6.27352e-10
-6.66956e-11
6.31777e-10
4.03627e-11
5.86839e-10
1.34027e-10
5.01822e-10
2.09528e-10
3.8864e-10
2.60953e-10
2.62199e-10
2.81196e-10
1.40542e-10
2.62189e-10
4.4721e-11
1.96034e-10
7.93009e-11
4.96679e-11
-1.30914e-10
1.50213e-10
-2.96305e-10
2.69038e-10
-3.75317e-10
3.80956e-10
-3.80503e-10
4.65162e-10
-3.25117e-10
5.04585e-10
-2.21584e-10
4.85503e-10
-8.07451e-11
3.97141e-10
8.83172e-11
2.3127e-10
2.78158e-10
-1.81619e-11
4.82754e-10
-3.55384e-10
6.97254e-10
-7.83107e-10
9.17758e-10
-1.30278e-09
1.14113e-09
-1.91482e-09
1.36484e-09
-2.61876e-09
1.58686e-09
-3.41348e-09
1.80553e-09
-4.29721e-09
2.01952e-09
-5.26776e-09
2.22774e-09
-6.32252e-09
2.42931e-09
-7.45857e-09
2.62354e-09
-8.67271e-09
2.80984e-09
-9.96156e-09
2.98776e-09
-1.13215e-08
3.15694e-09
-1.27489e-08
3.31711e-09
-1.42399e-08
3.46804e-09
-1.57906e-08
3.60958e-09
-1.73971e-08
3.74163e-09
-1.90553e-08
3.86412e-09
-2.07613e-08
3.97701e-09
-2.2511e-08
4.0803e-09
-2.43004e-08
4.17402e-09
-2.61255e-08
4.25822e-09
-2.79823e-08
4.33295e-09
-2.98668e-08
4.39832e-09
-3.17751e-08
4.4544e-09
-3.37033e-08
4.50132e-09
-3.56476e-08
4.5392e-09
-3.76041e-08
4.56817e-09
-3.95693e-08
4.58837e-09
-4.15393e-08
4.59995e-09
-4.35106e-08
4.60306e-09
-4.54797e-08
4.59788e-09
-4.7443e-08
4.58455e-09
-4.93972e-08
4.56326e-09
-5.1339e-08
4.53417e-09
-5.3265e-08
4.49747e-09
-5.51721e-08
4.45334e-09
-5.70573e-08
4.40195e-09
-5.89174e-08
4.34351e-09
-6.07495e-08
4.27819e-09
-6.25509e-08
4.20618e-09
-6.43186e-08
4.12768e-09
-6.605e-08
4.04287e-09
-6.77425e-08
3.95197e-09
-6.93936e-08
3.85515e-09
-7.10007e-08
3.75262e-09
-7.25616e-08
3.64457e-09
-7.40739e-08
3.5312e-09
-7.55354e-08
3.41272e-09
-7.69441e-08
3.28933e-09
-7.82979e-08
3.16122e-09
-7.95949e-08
3.0286e-09
-8.08332e-08
2.89167e-09
-8.20111e-08
2.75065e-09
-8.31269e-08
2.60573e-09
-8.4179e-08
2.45713e-09
-8.5166e-08
2.30505e-09
-8.60864e-08
2.1497e-09
-8.69389e-08
1.9913e-09
-8.77224e-08
1.83006e-09
-8.84356e-08
1.6662e-09
-8.90776e-08
1.49992e-09
-8.96474e-08
1.33146e-09
-9.01441e-08
1.16102e-09
-9.05671e-08
9.88835e-10
-9.09157e-08
8.15122e-10
-9.11892e-08
6.40108e-10
-9.13874e-08
4.64021e-10
-9.15097e-08
2.87089e-10
-9.1556e-08
1.09544e-10
-9.1526e-08
-6.83821e-11
-9.14198e-08
-2.46453e-10
-9.12374e-08
-4.24433e-10
-9.09789e-08
-6.02082e-10
-9.06445e-08
-7.79159e-10
-9.02347e-08
-9.55423e-10
-8.97498e-08
-1.13063e-09
-8.91905e-08
-1.30453e-09
-8.85574e-08
-1.47687e-09
-8.78513e-08
-1.64742e-09
-8.70731e-08
-1.81591e-09
-8.62237e-08
-1.9821e-09
-8.53044e-08
-2.14573e-09
-8.43162e-08
-2.30654e-09
-8.32605e-08
-2.46429e-09
-8.21388e-08
-2.61872e-09
-8.09525e-08
-2.76957e-09
-7.97033e-08
-2.91658e-09
-7.83931e-08
-3.0595e-09
-7.70235e-08
-3.19808e-09
-7.55967e-08
-3.33205e-09
-7.41147e-08
-3.46117e-09
-7.25796e-08
-3.58518e-09
-7.09938e-08
-3.70383e-09
-6.93598e-08
-3.81688e-09
-6.76799e-08
-3.92407e-09
-6.59568e-08
-4.02516e-09
-6.41932e-08
-4.11992e-09
-6.2392e-08
-4.20809e-09
-6.05559e-08
-4.28946e-09
-5.86882e-08
-4.36379e-09
-5.67917e-08
-4.43086e-09
-5.48699e-08
-4.49045e-09
-5.29258e-08
-4.54234e-09
-5.0963e-08
-4.58633e-09
-4.89847e-08
-4.62223e-09
-4.69947e-08
-4.64983e-09
-4.49965e-08
-4.66896e-09
-4.29937e-08
-4.67944e-09
-4.09902e-08
-4.68111e-09
-3.89897e-08
-4.6738e-09
-3.69962e-08
-4.65738e-09
-3.50135e-08
-4.63171e-09
-3.30456e-08
-4.59668e-09
-3.10965e-08
-4.55217e-09
-2.91703e-08
-4.4981e-09
-2.72711e-08
-4.43439e-09
-2.54029e-08
-4.36097e-09
-2.357e-08
-4.27782e-09
-2.17763e-08
-4.18491e-09
-2.0026e-08
-4.08224e-09
-1.83232e-08
-3.96985e-09
-1.66719e-08
-3.84779e-09
-1.50762e-08
-3.71614e-09
-1.354e-08
-3.57502e-09
-1.20671e-08
-3.42461e-09
-1.06614e-08
-3.26509e-09
-9.32644e-09
-3.09673e-09
-8.0658e-09
-2.91984e-09
-6.88277e-09
-2.7348e-09
-5.78047e-09
-2.54209e-09
-4.76176e-09
-2.34225e-09
-3.82918e-09
-2.13597e-09
-2.98494e-09
-1.92405e-09
-2.23078e-09
-1.70747e-09
-1.56796e-09
-1.48741e-09
-9.97114e-10
-1.26529e-09
-5.18132e-10
-1.04285e-09
-1.30036e-10
-8.22173e-10
1.69209e-10
-6.05853e-10
3.829e-10
-3.97046e-10
5.15843e-10
-1.99642e-10
5.74642e-10
-1.84382e-11
5.6802e-10
1.40656e-10
5.07156e-10
2.70408e-10
4.06035e-10
3.6209e-10
2.81789e-10
4.05437e-10
1.5505e-10
3.88904e-10
5.05576e-11
3.00535e-10
1.29859e-10
4.74708e-11
-1.78393e-10
1.40153e-10
-3.88995e-10
2.42591e-10
-4.77759e-10
3.27406e-10
-4.65316e-10
3.72231e-10
-3.69939e-10
3.58705e-10
-2.08056e-10
2.71914e-10
6.04714e-12
9.99562e-11
2.60275e-10
-1.66433e-10
5.44548e-10
-5.34221e-10
8.50544e-10
-1.0084e-09
1.17143e-09
-1.59227e-09
1.50163e-09
-2.28769e-09
1.83655e-09
-3.09533e-09
2.17248e-09
-4.01482e-09
2.50635e-09
-5.04494e-09
2.83565e-09
-6.18377e-09
3.15835e-09
-7.42878e-09
3.47275e-09
-8.77695e-09
3.77748e-09
-1.02248e-08
4.07143e-09
-1.17687e-08
4.35367e-09
-1.34044e-08
4.62348e-09
-1.51277e-08
4.88026e-09
-1.69341e-08
5.12354e-09
-1.88191e-08
5.35297e-09
-2.07778e-08
5.56828e-09
-2.28054e-08
5.76926e-09
-2.48971e-08
5.9558e-09
-2.70479e-08
6.1278e-09
-2.92528e-08
6.28526e-09
-3.1507e-08
6.42818e-09
-3.38054e-08
6.55661e-09
-3.61431e-08
6.67065e-09
-3.85152e-08
6.7704e-09
-4.09168e-08
6.856e-09
-4.33431e-08
6.9276e-09
-4.57892e-08
6.98539e-09
-4.82506e-08
7.02955e-09
-5.07226e-08
7.0603e-09
-5.32005e-08
7.07784e-09
-5.56798e-08
7.08242e-09
-5.81562e-08
7.07427e-09
-6.06253e-08
7.05363e-09
-6.30828e-08
7.02077e-09
-6.55246e-08
6.97595e-09
-6.79465e-08
6.91943e-09
-7.03447e-08
6.85149e-09
-7.27151e-08
6.77242e-09
-7.50541e-08
6.68248e-09
-7.73579e-08
6.58197e-09
-7.96229e-08
6.47118e-09
-8.18456e-08
6.3504e-09
-8.40227e-08
6.21993e-09
-8.61508e-08
6.08006e-09
-8.82267e-08
5.93109e-09
-9.02474e-08
5.77333e-09
-9.22099e-08
5.60707e-09
-9.41114e-08
5.43263e-09
-9.5949e-08
5.25031e-09
-9.77201e-08
5.06042e-09
-9.94221e-08
4.86328e-09
-1.01053e-07
4.65919e-09
-1.0261e-07
4.44847e-09
-1.0409e-07
4.23143e-09
-1.05493e-07
4.0084e-09
-1.06816e-07
3.7797e-09
-1.08056e-07
3.54565e-09
-1.09213e-07
3.30657e-09
-1.10284e-07
3.06278e-09
-1.11269e-07
2.81463e-09
-1.12165e-07
2.56244e-09
-1.12972e-07
2.30654e-09
-1.13688e-07
2.04728e-09
-1.14312e-07
1.78498e-09
-1.14843e-07
1.52e-09
-1.1528e-07
1.25268e-09
-1.15624e-07
9.83359e-10
-1.15872e-07
7.12396e-10
-1.16025e-07
4.40143e-10
-1.16083e-07
1.66955e-10
-1.16044e-07
-1.06808e-10
-1.1591e-07
-3.80784e-10
-1.1568e-07
-6.54606e-10
-1.15354e-07
-9.27908e-10
-1.14933e-07
-1.20032e-09
-1.14417e-07
-1.47146e-09
-1.13806e-07
-1.74096e-09
-1.13102e-07
-2.00844e-09
-1.12306e-07
-2.27352e-09
-1.11417e-07
-2.53581e-09
-1.10438e-07
-2.79492e-09
-1.0937e-07
-3.05048e-09
-1.08214e-07
-3.30209e-09
-1.06971e-07
-3.54935e-09
-1.05643e-07
-3.79189e-09
-1.04233e-07
-4.0293e-09
-1.02741e-07
-4.2612e-09
-1.0117e-07
-4.48718e-09
-9.95229e-08
-4.70686e-09
-9.78011e-08
-4.91985e-09
-9.60074e-08
-5.12576e-09
-9.41444e-08
-5.32419e-09
-9.22148e-08
-5.51476e-09
-9.02216e-08
-5.69708e-09
-8.81677e-08
-5.87078e-09
-8.60563e-08
-6.03548e-09
-8.38906e-08
-6.1908e-09
-8.16742e-08
-6.33638e-09
-7.94104e-08
-6.47186e-09
-7.7103e-08
-6.59687e-09
-7.47557e-08
-6.71108e-09
-7.23724e-08
-6.81413e-09
-6.99572e-08
-6.90571e-09
-6.7514e-08
-6.98548e-09
-6.50472e-08
-7.05313e-09
-6.25611e-08
-7.10837e-09
-6.006e-08
-7.1509e-09
-5.75485e-08
-7.18044e-09
-5.50313e-08
-7.19673e-09
-5.25128e-08
-7.19953e-09
-4.9998e-08
-7.1886e-09
-4.74917e-08
-7.16373e-09
-4.49987e-08
-7.12472e-09
-4.25239e-08
-7.0714e-09
-4.00725e-08
-7.00361e-09
-3.76494e-08
-6.92123e-09
-3.52596e-08
-6.82414e-09
-3.29083e-08
-6.71227e-09
-3.06006e-08
-6.58557e-09
-2.83414e-08
-6.44404e-09
-2.6136e-08
-6.28768e-09
-2.39893e-08
-6.11655e-09
-2.19063e-08
-5.93077e-09
-1.9892e-08
-5.73049e-09
-1.79511e-08
-5.51591e-09
-1.60884e-08
-5.2873e-09
-1.43085e-08
-5.04501e-09
-1.26158e-08
-4.78944e-09
-1.10145e-08
-4.52113e-09
-9.5086e-09
-4.24067e-09
-8.10186e-09
-3.94883e-09
-6.79763e-09
-3.64648e-09
-5.59889e-09
-3.3347e-09
-4.50819e-09
-3.01475e-09
-3.5275e-09
-2.68816e-09
-2.65818e-09
-2.35673e-09
-1.90083e-09
-2.02265e-09
-1.25515e-09
-1.68852e-09
-7.19834e-10
-1.35749e-09
-2.92322e-10
-1.03336e-09
3.13646e-11
-7.2073e-10
2.56881e-10
-4.2516e-10
3.91824e-10
-1.53388e-10
4.46025e-10
8.64444e-11
4.31868e-10
2.84566e-10
3.64608e-10
4.29363e-10
2.62769e-10
5.07289e-10
1.48665e-10
5.03e-10
4.94281e-11
3.9977e-10
1.79289e-10
4.03753e-11
-2.18773e-10
1.14149e-10
-4.62771e-10
1.85586e-10
-5.49194e-10
2.26533e-10
-5.0626e-10
2.13952e-10
-3.57354e-10
1.28881e-10
-1.22983e-10
-4.41858e-11
1.79114e-10
-3.17749e-10
5.33839e-10
-7.01668e-10
9.28468e-10
-1.20347e-09
1.35235e-09
-1.82864e-09
1.7966e-09
-2.58087e-09
2.25386e-09
-3.46234e-09
2.71802e-09
-4.47387e-09
3.18401e-09
-5.61517e-09
3.64765e-09
-6.88497e-09
4.10546e-09
-8.28119e-09
4.55457e-09
-9.80104e-09
4.9926e-09
-1.14412e-08
5.4176e-09
-1.31977e-08
5.82795e-09
-1.50663e-08
6.22231e-09
-1.70424e-08
6.5996e-09
-1.91211e-08
6.95896e-09
-2.12973e-08
7.29967e-09
-2.35655e-08
7.62119e-09
-2.59203e-08
7.9231e-09
-2.83561e-08
8.20508e-09
-3.08672e-08
8.46691e-09
-3.34479e-08
8.70845e-09
-3.60922e-08
8.92964e-09
-3.87945e-08
9.13047e-09
-4.15489e-08
9.311e-09
-4.43496e-08
9.47131e-09
-4.71907e-08
9.61154e-09
-5.00666e-08
9.73187e-09
-5.29715e-08
9.8325e-09
-5.58998e-08
9.91367e-09
-5.88458e-08
9.97562e-09
-6.18042e-08
1.00186e-08
-6.47694e-08
1.0043e-08
-6.77361e-08
1.00491e-08
-7.0699e-08
1.00372e-08
-7.3653e-08
1.00076e-08
-7.6593e-08
9.96078e-09
-7.95141e-08
9.897e-09
-8.24113e-08
9.81667e-09
-8.528e-08
9.72016e-09
-8.81155e-08
9.60787e-09
-9.09132e-08
9.4802e-09
-9.36688e-08
9.33755e-09
-9.63779e-08
9.18031e-09
-9.90364e-08
9.00891e-09
-1.0164e-07
8.82377e-09
-1.04185e-07
8.62529e-09
-1.06668e-07
8.41391e-09
-1.09085e-07
8.19005e-09
-1.11432e-07
7.95413e-09
-1.13706e-07
7.7066e-09
-1.15904e-07
7.44789e-09
-1.18022e-07
7.17844e-09
-1.20057e-07
6.89869e-09
-1.22007e-07
6.60907e-09
-1.23869e-07
6.31005e-09
-1.25639e-07
6.00207e-09
-1.27316e-07
5.68557e-09
-1.28898e-07
5.36103e-09
-1.30381e-07
5.02889e-09
-1.31764e-07
4.68962e-09
-1.33045e-07
4.34368e-09
-1.34222e-07
3.99154e-09
-1.35293e-07
3.63368e-09
-1.36257e-07
3.27055e-09
-1.37112e-07
2.90266e-09
-1.37858e-07
2.53048e-09
-1.38492e-07
2.15449e-09
-1.39015e-07
1.77518e-09
-1.39425e-07
1.39306e-09
-1.39721e-07
1.00861e-09
-1.39903e-07
6.22342e-10
-1.39971e-07
2.34763e-10
-1.39924e-07
-1.53618e-10
-1.39762e-07
-5.42285e-10
-1.39486e-07
-9.30721e-10
-1.39096e-07
-1.3184e-09
-1.38591e-07
-1.7048e-09
-1.37973e-07
-2.08938e-09
-1.37243e-07
-2.47162e-09
-1.364e-07
-2.85097e-09
-1.35447e-07
-3.2269e-09
-1.34384e-07
-3.59885e-09
-1.33212e-07
-3.96629e-09
-1.31934e-07
-4.32866e-09
-1.30551e-07
-4.68541e-09
-1.29064e-07
-5.03599e-09
-1.27476e-07
-5.37984e-09
-1.25789e-07
-5.71641e-09
-1.24005e-07
-6.04514e-09
-1.22127e-07
-6.36547e-09
-1.20157e-07
-6.67686e-09
-1.18098e-07
-6.97875e-09
-1.15953e-07
-7.27057e-09
-1.13726e-07
-7.5518e-09
-1.11419e-07
-7.82188e-09
-1.09035e-07
-8.08026e-09
-1.0658e-07
-8.32641e-09
-1.04056e-07
-8.5598e-09
-1.01466e-07
-8.77991e-09
-9.88166e-08
-8.98622e-09
-9.61102e-08
-9.17821e-09
-9.33517e-08
-9.35539e-09
-9.05455e-08
-9.51727e-09
-8.76963e-08
-9.66336e-09
-8.48088e-08
-9.79322e-09
-8.18879e-08
-9.90637e-09
-7.89386e-08
-1.00024e-08
-7.59661e-08
-1.00809e-08
-7.29756e-08
-1.01414e-08
-6.99725e-08
-1.01835e-08
-6.69623e-08
-1.0207e-08
-6.39504e-08
-1.02114e-08
-6.09426e-08
-1.01964e-08
-5.79445e-08
-1.01618e-08
-5.4962e-08
-1.01073e-08
-5.20008e-08
-1.00325e-08
-4.9067e-08
-9.93746e-09
-4.61664e-08
-9.82183e-09
-4.3305e-08
-9.68553e-09
-4.04888e-08
-9.52846e-09
-3.77238e-08
-9.35057e-09
-3.5016e-08
-9.15185e-09
-3.23713e-08
-8.93237e-09
-2.97956e-08
-8.69223e-09
-2.72948e-08
-8.43159e-09
-2.48746e-08
-8.1507e-09
-2.25406e-08
-7.84989e-09
-2.02983e-08
-7.52956e-09
-1.81531e-08
-7.19023e-09
-1.611e-08
-6.83252e-09
-1.41739e-08
-6.45719e-09
-1.23495e-08
-6.06516e-09
-1.06408e-08
-5.65751e-09
-9.05172e-09
-5.23553e-09
-7.58566e-09
-4.80076e-09
-6.2454e-09
-4.35501e-09
-5.03311e-09
-3.90045e-09
-3.95023e-09
-3.43962e-09
-2.99731e-09
-2.97556e-09
-2.17394e-09
-2.51189e-09
-1.47853e-09
-2.05291e-09
-9.08141e-10
-1.60375e-09
-4.58323e-10
-1.17055e-09
-1.22847e-10
-7.6063e-10
1.06515e-10
-3.82749e-10
2.40263e-10
-4.73089e-11
2.91459e-10
2.33364e-10
2.76051e-10
4.44773e-10
2.13298e-10
5.70053e-10
1.26364e-10
5.89936e-10
4.33958e-11
4.82736e-10
2.22685e-10
2.99249e-11
-2.48696e-10
7.64908e-11
-5.09334e-10
1.05425e-10
-5.78125e-10
8.90078e-11
-4.8984e-10
4.33119e-12
-2.72676e-10
-1.67571e-10
4.89209e-11
-4.42309e-10
4.53853e-10
-8.32563e-10
9.24094e-10
-1.34842e-09
1.44433e-09
-1.99767e-09
2.00159e-09
-2.78603e-09
2.58496e-09
-3.71741e-09
3.18525e-09
-4.79415e-09
3.79475e-09
-6.01717e-09
4.40702e-09
-7.38618e-09
5.01665e-09
-8.89985e-09
5.61913e-09
-1.05559e-08
6.21067e-09
-1.23515e-08
6.78812e-09
-1.42827e-08
7.34886e-09
-1.63455e-08
7.8907e-09
-1.8535e-08
8.41184e-09
-2.08462e-08
8.91078e-09
-2.32735e-08
9.38632e-09
-2.58113e-08
9.83748e-09
-2.84536e-08
1.02635e-08
-3.11942e-08
1.06637e-08
-3.40267e-08
1.10376e-08
-3.69448e-08
1.1385e-08
-3.9942e-08
1.17056e-08
-4.30116e-08
1.19993e-08
-4.61471e-08
1.2266e-08
-4.93419e-08
1.25057e-08
-5.25892e-08
1.27187e-08
-5.58826e-08
1.29049e-08
-5.92155e-08
1.30647e-08
-6.25812e-08
1.31983e-08
-6.59735e-08
1.33059e-08
-6.93858e-08
1.33879e-08
-7.28119e-08
1.34447e-08
-7.62455e-08
1.34766e-08
-7.96805e-08
1.34841e-08
-8.31108e-08
1.34675e-08
-8.65305e-08
1.34274e-08
-8.99338e-08
1.33641e-08
-9.33149e-08
1.32781e-08
-9.66683e-08
1.317e-08
-9.99885e-08
1.30403e-08
-1.0327e-07
1.28895e-08
-1.06508e-07
1.2718e-08
-1.09697e-07
1.25264e-08
-1.12832e-07
1.23154e-08
-1.15908e-07
1.20853e-08
-1.18921e-07
1.18368e-08
-1.21866e-07
1.15704e-08
-1.24739e-07
1.12868e-08
-1.27536e-07
1.09864e-08
-1.30251e-07
1.06698e-08
-1.32882e-07
1.03376e-08
-1.35425e-07
9.99046e-09
-1.37875e-07
9.62889e-09
-1.4023e-07
9.25349e-09
-1.42486e-07
8.86487e-09
-1.44639e-07
8.46362e-09
-1.46688e-07
8.05035e-09
-1.48628e-07
7.62567e-09
-1.50457e-07
7.19018e-09
-1.52173e-07
6.7445e-09
-1.53772e-07
6.28926e-09
-1.55254e-07
5.82508e-09
-1.56615e-07
5.35258e-09
-1.57853e-07
4.8724e-09
-1.58968e-07
4.38518e-09
-1.59957e-07
3.89157e-09
-1.60819e-07
3.39221e-09
-1.61552e-07
2.88775e-09
-1.62156e-07
2.37886e-09
-1.62629e-07
1.8662e-09
-1.62971e-07
1.35044e-09
-1.6318e-07
8.3225e-10
-1.63258e-07
3.12319e-10
-1.63203e-07
-2.0867e-10
-1.63015e-07
-7.30025e-10
-1.62695e-07
-1.25105e-09
-1.62242e-07
-1.77104e-09
-1.61658e-07
-2.28929e-09
-1.60942e-07
-2.80509e-09
-1.60096e-07
-3.31772e-09
-1.5912e-07
-3.82646e-09
-1.58017e-07
-4.33058e-09
-1.56786e-07
-4.82935e-09
-1.55431e-07
-5.32205e-09
-1.53951e-07
-5.80792e-09
-1.5235e-07
-6.28624e-09
-1.5063e-07
-6.75627e-09
-1.48793e-07
-7.21726e-09
-1.46841e-07
-7.66846e-09
-1.44777e-07
-8.10914e-09
-1.42604e-07
-8.53855e-09
-1.40325e-07
-8.95595e-09
-1.37943e-07
-9.36059e-09
-1.35461e-07
-9.75175e-09
-1.32885e-07
-1.01287e-08
-1.30216e-07
-1.04907e-08
-1.27459e-07
-1.0837e-08
-1.24619e-07
-1.11669e-08
-1.21699e-07
-1.14797e-08
-1.18704e-07
-1.17747e-08
-1.15639e-07
-1.20513e-08
-1.12508e-07
-1.23086e-08
-1.09318e-07
-1.25462e-08
-1.06072e-07
-1.27632e-08
-1.02776e-07
-1.29592e-08
-9.94357e-08
-1.31334e-08
-9.60568e-08
-1.32853e-08
-9.26449e-08
-1.34143e-08
-8.9206e-08
-1.35198e-08
-8.57461e-08
-1.36013e-08
-8.22713e-08
-1.36583e-08
-7.87879e-08
-1.36904e-08
-7.53022e-08
-1.3697e-08
-7.18209e-08
-1.36778e-08
-6.83503e-08
-1.36324e-08
-6.48972e-08
-1.35604e-08
-6.14682e-08
-1.34615e-08
-5.80701e-08
-1.33356e-08
-5.47096e-08
-1.31823e-08
-5.13937e-08
-1.30015e-08
-4.81291e-08
-1.27931e-08
-4.49226e-08
-1.2557e-08
-4.17811e-08
-1.22934e-08
-3.87114e-08
-1.20022e-08
-3.572e-08
-1.16836e-08
-3.28136e-08
-1.1338e-08
-2.99988e-08
-1.09656e-08
-2.72818e-08
-1.05669e-08
-2.46688e-08
-1.01425e-08
-2.21659e-08
-9.69316e-09
-1.97787e-08
-9.21971e-09
-1.75127e-08
-8.72322e-09
-1.53729e-08
-8.20494e-09
-1.33641e-08
-7.66635e-09
-1.14904e-08
-7.10922e-09
-9.75551e-09
-6.53562e-09
-8.16253e-09
-5.94799e-09
-6.71378e-09
-5.34919e-09
-5.41078e-09
-4.74262e-09
-4.25408e-09
-4.13225e-09
-3.24319e-09
-3.52278e-09
-2.37636e-09
-2.91974e-09
-1.65043e-09
-2.32968e-09
-1.06066e-09
-1.76032e-09
-6.00496e-10
-1.22079e-09
-2.61389e-10
-7.21852e-10
-3.25239e-11
-2.76172e-10
9.9427e-11
1.01409e-10
1.50628e-10
3.93565e-10
1.40503e-10
5.80181e-10
9.22889e-11
6.38154e-10
3.39551e-11
5.41071e-10
2.56641e-10
1.72161e-11
-2.65908e-10
3.04986e-11
-5.22611e-10
8.10144e-12
-5.55726e-10
-7.63471e-11
-4.0539e-10
-2.44944e-10
-1.04079e-10
-5.16147e-10
3.20125e-10
-9.05252e-10
8.42958e-10
-1.42476e-09
1.44361e-09
-2.08469e-09
2.10426e-09
-2.89281e-09
2.80971e-09
-3.85487e-09
3.54702e-09
-4.97482e-09
4.3052e-09
-6.25501e-09
5.07494e-09
-7.69635e-09
5.84836e-09
-9.2985e-09
6.61881e-09
-1.106e-08
7.38065e-09
-1.29785e-08
8.12917e-09
-1.50508e-08
8.86036e-09
-1.72728e-08
9.57087e-09
-1.964e-08
1.02579e-08
-2.21472e-08
1.09191e-08
-2.4789e-08
1.15526e-08
-2.75594e-08
1.21567e-08
-3.0452e-08
1.27301e-08
-3.34603e-08
1.32718e-08
-3.65775e-08
1.37809e-08
-3.97967e-08
1.42569e-08
-4.31108e-08
1.46991e-08
-4.65126e-08
1.51074e-08
-4.99949e-08
1.54815e-08
-5.35502e-08
1.58213e-08
-5.71712e-08
1.61268e-08
-6.08506e-08
1.63981e-08
-6.4581e-08
1.66353e-08
-6.83551e-08
1.68388e-08
-7.21656e-08
1.70088e-08
-7.60053e-08
1.71456e-08
-7.9867e-08
1.72497e-08
-8.37437e-08
1.73214e-08
-8.76284e-08
1.73613e-08
-9.15141e-08
1.73699e-08
-9.53942e-08
1.73476e-08
-9.92619e-08
1.72951e-08
-1.03111e-07
1.72129e-08
-1.06934e-07
1.71016e-08
-1.10726e-07
1.69619e-08
-1.1448e-07
1.67944e-08
-1.1819e-07
1.65997e-08
-1.21851e-07
1.63785e-08
-1.25456e-07