/*--------------------------------*- C++ -*----------------------------------*\
  =========                 |
  \\      /  F ield         | OpenFOAM: The Open Source CFD Toolbox
   \\    /   O peration     | Website:  https://openfoam.org
    \\  /    A nd           | Version:  7
     \\/     M anipulation  |
\*---------------------------------------------------------------------------*/
FoamFile
{
    version     2.0;
    format      ascii;
    class       volVectorField;
    location    "0.35";
    object      U;
}
// * * * * * * * * * * * * * * * * * * * * * * * * * * * * * * * * * * * * * //

dimensions      [0 1 -1 0 0 0 0];

internalField   nonuniform List<vector> 
25600
(
(1.54596e-07 -2.3004e-07 0)
(2.80048e-06 -1.80854e-06 0)
(9.0576e-06 -2.83868e-06 0)
(1.69183e-05 -3.20879e-06 0)
(2.48791e-05 -3.12423e-06 0)
(3.19957e-05 -2.74612e-06 0)
(3.7617e-05 -2.18126e-06 0)
(4.12935e-05 -1.5006e-06 0)
(4.27257e-05 -7.50634e-07 0)
(4.17204e-05 3.82906e-08 0)
(3.81599e-05 8.4573e-07 0)
(3.19819e-05 1.65758e-06 0)
(2.31651e-05 2.46381e-06 0)
(1.17189e-05 3.25712e-06 0)
(-2.32377e-06 4.03213e-06 0)
(-1.89116e-05 4.78493e-06 0)
(-3.79792e-05 5.5126e-06 0)
(-5.94504e-05 6.21293e-06 0)
(-8.32403e-05 6.88426e-06 0)
(-0.000109258 7.5254e-06 0)
(-0.000137406 8.13548e-06 0)
(-0.000167585 8.7139e-06 0)
(-0.000199691 9.26029e-06 0)
(-0.00023362 9.77442e-06 0)
(-0.000269264 1.02562e-05 0)
(-0.000306517 1.07057e-05 0)
(-0.000345269 1.11231e-05 0)
(-0.000385412 1.15085e-05 0)
(-0.000426839 1.18622e-05 0)
(-0.000469442 1.21847e-05 0)
(-0.000513114 1.24763e-05 0)
(-0.000557751 1.27373e-05 0)
(-0.000603248 1.29683e-05 0)
(-0.000649501 1.31696e-05 0)
(-0.000696409 1.33419e-05 0)
(-0.000743872 1.34855e-05 0)
(-0.000791791 1.36011e-05 0)
(-0.000840068 1.36891e-05 0)
(-0.000888608 1.37503e-05 0)
(-0.000937319 1.3785e-05 0)
(-0.000986107 1.37939e-05 0)
(-0.00103488 1.37776e-05 0)
(-0.00108356 1.37367e-05 0)
(-0.00113206 1.36717e-05 0)
(-0.00118028 1.35832e-05 0)
(-0.00122815 1.34718e-05 0)
(-0.00127559 1.33381e-05 0)
(-0.00132253 1.31828e-05 0)
(-0.00136887 1.30063e-05 0)
(-0.00141456 1.28093e-05 0)
(-0.00145952 1.25925e-05 0)
(-0.00150368 1.23563e-05 0)
(-0.00154698 1.21014e-05 0)
(-0.00158934 1.18284e-05 0)
(-0.0016307 1.15379e-05 0)
(-0.00167101 1.12305e-05 0)
(-0.0017102 1.09068e-05 0)
(-0.00174821 1.05673e-05 0)
(-0.001785 1.02128e-05 0)
(-0.00182051 9.84367e-06 0)
(-0.00185468 9.46062e-06 0)
(-0.00188748 9.06423e-06 0)
(-0.00191885 8.65511e-06 0)
(-0.00194874 8.23387e-06 0)
(-0.00197713 7.80112e-06 0)
(-0.00200396 7.35746e-06 0)
(-0.0020292 6.90351e-06 0)
(-0.00205281 6.43988e-06 0)
(-0.00207476 5.96717e-06 0)
(-0.00209503 5.48602e-06 0)
(-0.00211357 4.99704e-06 0)
(-0.00213037 4.50086e-06 0)
(-0.0021454 3.99811e-06 0)
(-0.00215863 3.48944e-06 0)
(-0.00217005 2.9755e-06 0)
(-0.00217964 2.45693e-06 0)
(-0.00218739 1.93439e-06 0)
(-0.00219328 1.40855e-06 0)
(-0.0021973 8.8008e-07 0)
(-0.00219944 3.49648e-07 0)
(-0.00219971 -1.82061e-07 0)
(-0.00219808 -7.14359e-07 0)
(-0.00219458 -1.24655e-06 0)
(-0.00218919 -1.77794e-06 0)
(-0.00218192 -2.3078e-06 0)
(-0.00217277 -2.83544e-06 0)
(-0.00216177 -3.36012e-06 0)
(-0.00214891 -3.88112e-06 0)
(-0.00213422 -4.39769e-06 0)
(-0.00211771 -4.90909e-06 0)
(-0.0020994 -5.41458e-06 0)
(-0.00207932 -5.91341e-06 0)
(-0.00205749 -6.40481e-06 0)
(-0.00203393 -6.88803e-06 0)
(-0.00200868 -7.36231e-06 0)
(-0.00198177 -7.82686e-06 0)
(-0.00195324 -8.28092e-06 0)
(-0.00192313 -8.72371e-06 0)
(-0.00189147 -9.15444e-06 0)
(-0.00185832 -9.57235e-06 0)
(-0.00182371 -9.97665e-06 0)
(-0.00178771 -1.03666e-05 0)
(-0.00175036 -1.07414e-05 0)
(-0.00171171 -1.11002e-05 0)
(-0.00167183 -1.14423e-05 0)
(-0.00163078 -1.1767e-05 0)
(-0.00158861 -1.20734e-05 0)
(-0.0015454 -1.23609e-05 0)
(-0.00150121 -1.26286e-05 0)
(-0.00145612 -1.28759e-05 0)
(-0.00141019 -1.3102e-05 0)
(-0.00136351 -1.33062e-05 0)
(-0.00131615 -1.34877e-05 0)
(-0.0012682 -1.3646e-05 0)
(-0.00121973 -1.37803e-05 0)
(-0.00117083 -1.389e-05 0)
(-0.00112159 -1.39744e-05 0)
(-0.00107211 -1.4033e-05 0)
(-0.00102246 -1.4065e-05 0)
(-0.000972752 -1.407e-05 0)
(-0.000923074 -1.40473e-05 0)
(-0.000873525 -1.39965e-05 0)
(-0.000824204 -1.39171e-05 0)
(-0.000775212 -1.38085e-05 0)
(-0.000726651 -1.36704e-05 0)
(-0.000678625 -1.35022e-05 0)
(-0.000631238 -1.33037e-05 0)
(-0.000584596 -1.30745e-05 0)
(-0.000538805 -1.28143e-05 0)
(-0.000493974 -1.25229e-05 0)
(-0.000450209 -1.22e-05 0)
(-0.00040762 -1.18454e-05 0)
(-0.000366313 -1.14592e-05 0)
(-0.000326398 -1.10411e-05 0)
(-0.000287981 -1.05914e-05 0)
(-0.000251169 -1.011e-05 0)
(-0.000216068 -9.59727e-06 0)
(-0.000182782 -9.0534e-06 0)
(-0.000151413 -8.47888e-06 0)
(-0.000122059 -7.87431e-06 0)
(-9.48175e-05 -7.24047e-06 0)
(-6.97792e-05 -6.57835e-06 0)
(-4.70309e-05 -5.88921e-06 0)
(-2.66526e-05 -5.17466e-06 0)
(-8.71657e-06 -4.43681e-06 0)
(6.71495e-06 -3.67828e-06 0)
(1.95917e-05 -2.90245e-06 0)
(2.98789e-05 -2.11371e-06 0)
(3.75609e-05 -1.3178e-06 0)
(4.26469e-05 -5.22484e-07 0)
(4.51782e-05 2.61731e-07 0)
(4.5238e-05 1.02022e-06 0)
(4.29649e-05 1.73224e-06 0)
(3.85733e-05 2.36728e-06 0)
(3.23832e-05 2.879e-06 0)
(2.48624e-05 3.19675e-06 0)
(1.66773e-05 3.21529e-06 0)
(8.77969e-06 2.7782e-06 0)
(2.64475e-06 1.69413e-06 0)
(1.23064e-07 1.21307e-07 0)
(1.76312e-06 -2.91407e-06 0)
(9.35589e-06 -9.43826e-06 0)
(2.31168e-05 -1.34299e-05 0)
(3.93594e-05 -1.47341e-05 0)
(5.52415e-05 -1.39668e-05 0)
(6.87712e-05 -1.16976e-05 0)
(7.84096e-05 -8.36612e-06 0)
(8.29993e-05 -4.30143e-06 0)
(8.17085e-05 2.56021e-07 0)
(7.39592e-05 5.13145e-06 0)
(5.93684e-05 1.01963e-05 0)
(3.77035e-05 1.53547e-05 0)
(8.84906e-06 2.05344e-05 0)
(-2.72188e-05 2.568e-05 0)
(-7.04521e-05 3.07489e-05 0)
(-0.000120746 3.57083e-05 0)
(-0.000177949 4.05324e-05 0)
(-0.000241877 4.52013e-05 0)
(-0.000312315 4.96993e-05 0)
(-0.000389026 5.40141e-05 0)
(-0.000471755 5.81365e-05 0)
(-0.000560233 6.20591e-05 0)
(-0.000654181 6.57767e-05 0)
(-0.000753311 6.92854e-05 0)
(-0.000857328 7.25826e-05 0)
(-0.000965933 7.56668e-05 0)
(-0.00107883 7.85373e-05 0)
(-0.0011957 8.11941e-05 0)
(-0.00131626 8.36379e-05 0)
(-0.00144019 8.58699e-05 0)
(-0.00156719 8.78915e-05 0)
(-0.00169697 8.97049e-05 0)
(-0.00182923 9.13121e-05 0)
(-0.00196367 9.27159e-05 0)
(-0.0021 9.3919e-05 0)
(-0.00223793 9.49244e-05 0)
(-0.00237718 9.57353e-05 0)
(-0.00251747 9.6355e-05 0)
(-0.00265852 9.67871e-05 0)
(-0.00280007 9.70351e-05 0)
(-0.00294185 9.71027e-05 0)
(-0.0030836 9.69936e-05 0)
(-0.00322507 9.67116e-05 0)
(-0.003366 9.62606e-05 0)
(-0.00350616 9.56445e-05 0)
(-0.0036453 9.48673e-05 0)
(-0.00378319 9.3933e-05 0)
(-0.00391961 9.28457e-05 0)
(-0.00405434 9.16094e-05 0)
(-0.00418716 9.02283e-05 0)
(-0.00431786 8.87064e-05 0)
(-0.00444624 8.7048e-05 0)
(-0.0045721 8.52571e-05 0)
(-0.00469526 8.33379e-05 0)
(-0.00481552 8.12945e-05 0)
(-0.00493271 7.91312e-05 0)
(-0.00504666 7.68522e-05 0)
(-0.0051572 7.44616e-05 0)
(-0.00526416 7.19638e-05 0)
(-0.0053674 6.93628e-05 0)
(-0.00546677 6.66629e-05 0)
(-0.00556212 6.38684e-05 0)
(-0.00565333 6.09837e-05 0)
(-0.00574025 5.80129e-05 0)
(-0.00582277 5.49605e-05 0)
(-0.00590077 5.18307e-05 0)
(-0.00597414 4.86279e-05 0)
(-0.00604278 4.53566e-05 0)
(-0.0061066 4.2021e-05 0)
(-0.00616549 3.86257e-05 0)
(-0.00621937 3.51751e-05 0)
(-0.00626818 3.16738e-05 0)
(-0.00631183 2.81261e-05 0)
(-0.00635026 2.45368e-05 0)
(-0.00638342 2.09104e-05 0)
(-0.00641125 1.72516e-05 0)
(-0.00643372 1.35652e-05 0)
(-0.00645078 9.85572e-06 0)
(-0.0064624 6.12807e-06 0)
(-0.00646857 2.38704e-06 0)
(-0.00646926 -1.3625e-06 0)
(-0.00646447 -5.11566e-06 0)
(-0.0064542 -8.86747e-06 0)
(-0.00643844 -1.26129e-05 0)
(-0.00641723 -1.6347e-05 0)
(-0.00639057 -2.00647e-05 0)
(-0.00635849 -2.37607e-05 0)
(-0.00632104 -2.743e-05 0)
(-0.00627825 -3.10673e-05 0)
(-0.00623018 -3.46673e-05 0)
(-0.00617688 -3.82249e-05 0)
(-0.00611842 -4.17346e-05 0)
(-0.00605487 -4.51912e-05 0)
(-0.00598633 -4.85892e-05 0)
(-0.00591287 -5.19234e-05 0)
(-0.00583459 -5.51882e-05 0)
(-0.00575161 -5.83782e-05 0)
(-0.00566403 -6.1488e-05 0)
(-0.00557198 -6.45122e-05 0)
(-0.00547559 -6.74452e-05 0)
(-0.00537498 -7.02818e-05 0)
(-0.00527032 -7.30164e-05 0)
(-0.00516175 -7.56437e-05 0)
(-0.00504943 -7.81583e-05 0)
(-0.00493353 -8.05548e-05 0)
(-0.00481423 -8.2828e-05 0)
(-0.00469172 -8.49725e-05 0)
(-0.00456618 -8.69832e-05 0)
(-0.00443781 -8.88549e-05 0)
(-0.00430682 -9.05826e-05 0)
(-0.00417343 -9.21614e-05 0)
(-0.00403785 -9.35863e-05 0)
(-0.00390031 -9.48525e-05 0)
(-0.00376105 -9.59553e-05 0)
(-0.0036203 -9.68903e-05 0)
(-0.00347833 -9.76529e-05 0)
(-0.00333537 -9.82388e-05 0)
(-0.00319169 -9.86441e-05 0)
(-0.00304755 -9.88645e-05 0)
(-0.00290324 -9.88965e-05 0)
(-0.00275901 -9.87364e-05 0)
(-0.00261515 -9.83808e-05 0)
(-0.00247196 -9.78264e-05 0)
(-0.00232971 -9.70704e-05 0)
(-0.0021887 -9.61101e-05 0)
(-0.00204924 -9.4943e-05 0)
(-0.00191161 -9.3567e-05 0)
(-0.00177612 -9.19803e-05 0)
(-0.00164308 -9.01813e-05 0)
(-0.00151279 -8.8169e-05 0)
(-0.00138555 -8.59427e-05 0)
(-0.00126168 -8.35021e-05 0)
(-0.00114149 -8.08474e-05 0)
(-0.00102526 -7.79795e-05 0)
(-0.000913319 -7.48996e-05 0)
(-0.000805951 -7.16101e-05 0)
(-0.000703452 -6.81137e-05 0)
(-0.000606113 -6.44145e-05 0)
(-0.000514213 -6.05172e-05 0)
(-0.000428022 -5.64283e-05 0)
(-0.000347801 -5.21555e-05 0)
(-0.000273794 -4.77085e-05 0)
(-0.000206227 -4.30993e-05 0)
(-0.000145308 -3.83424e-05 0)
(-9.12162e-05 -3.34563e-05 0)
(-4.40991e-05 -2.84635e-05 0)
(-4.06611e-06 -2.33922e-05 0)
(2.88218e-05 -1.82776e-05 0)
(5.4563e-05 -1.31644e-05 0)
(7.32303e-05 -8.10983e-06 0)
(8.49902e-05 -3.188e-06 0)
(9.01274e-05 1.50399e-06 0)
(8.90771e-05 5.8372e-06 0)
(8.24672e-05 9.63805e-06 0)
(7.11739e-05 1.26702e-05 0)
(5.63901e-05 1.46127e-05 0)
(3.96749e-05 1.50414e-05 0)
(2.30137e-05 1.34167e-05 0)
(9.18421e-06 9.18275e-06 0)
(1.69722e-06 2.64067e-06 0)
(2.81904e-06 -9.10925e-06 0)
(1.33935e-05 -2.3182e-05 0)
(3.10532e-05 -3.10832e-05 0)
(5.08216e-05 -3.31427e-05 0)
(6.90973e-05 -3.04603e-05 0)
(8.33197e-05 -2.41292e-05 0)
(9.14054e-05 -1.50771e-05 0)
(9.17128e-05 -4.0488e-06 0)
(8.30095e-05 8.37536e-06 0)
(6.44009e-05 2.1748e-05 0)
(3.52655e-05 3.57246e-05 0)
(-4.79811e-06 5.00387e-05 0)
(-5.60134e-05 6.44829e-05 0)
(-0.000118461 7.88951e-05 0)
(-0.000192106 9.31476e-05 0)
(-0.000276821 0.00010714 0)
(-0.000372403 0.000120791 0)
(-0.000478588 0.000134038 0)
(-0.000595063 0.000146831 0)
(-0.000721475 0.000159129 0)
(-0.000857441 0.000170901 0)
(-0.00100255 0.000182123 0)
(-0.00115637 0.000192774 0)
(-0.00131846 0.000202842 0)
(-0.00148835 0.000212316 0)
(-0.00166559 0.000221188 0)
(-0.00184968 0.000229456 0)
(-0.00204017 0.000237115 0)
(-0.00223656 0.000244168 0)
(-0.00243837 0.000250615 0)
(-0.00264513 0.000256459 0)
(-0.00285635 0.000261706 0)
(-0.00307155 0.00026636 0)
(-0.00329027 0.000270427 0)
(-0.00351204 0.000273916 0)
(-0.00373639 0.000276834 0)
(-0.00396287 0.000279189 0)
(-0.00419102 0.000280991 0)
(-0.00442041 0.000282248 0)
(-0.0046506 0.000282971 0)
(-0.00488115 0.000283171 0)
(-0.00511166 0.000282856 0)
(-0.0053417 0.000282039 0)
(-0.00557088 0.00028073 0)
(-0.00579879 0.00027894 0)
(-0.00602506 0.00027668 0)
(-0.0062493 0.000273963 0)
(-0.00647115 0.000270799 0)
(-0.00669025 0.0002672 0)
(-0.00690625 0.000263178 0)
(-0.00711881 0.000258746 0)
(-0.0073276 0.000253914 0)
(-0.00753229 0.000248695 0)
(-0.00773259 0.000243101 0)
(-0.00792818 0.000237144 0)
(-0.00811878 0.000230836 0)
(-0.0083041 0.00022419 0)
(-0.00848388 0.000217217 0)
(-0.00865784 0.00020993 0)
(-0.00882575 0.000202342 0)
(-0.00898736 0.000194465 0)
(-0.00914243 0.00018631 0)
(-0.00929075 0.000177892 0)
(-0.00943211 0.000169222 0)
(-0.00956631 0.000160313 0)
(-0.00969315 0.000151178 0)
(-0.00981246 0.000141829 0)
(-0.00992407 0.00013228 0)
(-0.0100278 0.000122544 0)
(-0.0101236 0.000112632 0)
(-0.0102112 0.00010256 0)
(-0.0102905 9.23387e-05 0)
(-0.0103614 8.19829e-05 0)
(-0.0104239 7.15056e-05 0)
(-0.0104777 6.09205e-05 0)
(-0.0105229 5.0241e-05 0)
(-0.0105594 3.94811e-05 0)
(-0.0105871 2.86547e-05 0)
(-0.0106059 1.77756e-05 0)
(-0.0106158 6.85811e-06 0)
(-0.0106169 -4.08356e-06 0)
(-0.010609 -1.5035e-05 0)
(-0.0105922 -2.59817e-05 0)
(-0.0105665 -3.69091e-05 0)
(-0.0105319 -4.78023e-05 0)
(-0.0104884 -5.86465e-05 0)
(-0.0104362 -6.94267e-05 0)
(-0.0103752 -8.01277e-05 0)
(-0.0103055 -9.07344e-05 0)
(-0.0102272 -0.000101231 0)
(-0.0101405 -0.000111603 0)
(-0.0100453 -0.000121834 0)
(-0.0099419 -0.00013191 0)
(-0.00983036 -0.000141813 0)
(-0.00971084 -0.000151528 0)
(-0.00958349 -0.000161041 0)
(-0.0094485 -0.000170334 0)
(-0.00930605 -0.000179392 0)
(-0.00915633 -0.000188199 0)
(-0.00899955 -0.00019674 0)
(-0.00883595 -0.000204998 0)
(-0.00866576 -0.000212959 0)
(-0.00848922 -0.000220605 0)
(-0.00830661 -0.000227922 0)
(-0.00811818 -0.000234895 0)
(-0.00792424 -0.000241507 0)
(-0.00772508 -0.000247744 0)
(-0.00752102 -0.000253591 0)
(-0.00731237 -0.000259032 0)
(-0.00709947 -0.000264054 0)
(-0.00688267 -0.000268642 0)
(-0.00666232 -0.000272781 0)
(-0.00643881 -0.000276459 0)
(-0.0062125 -0.000279662 0)
(-0.00598379 -0.000282376 0)
(-0.00575308 -0.00028459 0)
(-0.00552077 -0.00028629 0)
(-0.0052873 -0.000287466 0)
(-0.00505309 -0.000288105 0)
(-0.00481857 -0.000288199 0)
(-0.0045842 -0.000287735 0)
(-0.00435042 -0.000286705 0)
(-0.0041177 -0.000285101 0)
(-0.00388651 -0.000282913 0)
(-0.00365731 -0.000280135 0)
(-0.00343058 -0.00027676 0)
(-0.00320681 -0.000272784 0)
(-0.00298647 -0.0002682 0)
(-0.00277007 -0.000263007 0)
(-0.00255808 -0.000257201 0)
(-0.002351 -0.000250782 0)
(-0.00214932 -0.000243749 0)
(-0.00195352 -0.000236106 0)
(-0.00176408 -0.000227855 0)
(-0.00158149 -0.000219003 0)
(-0.00140621 -0.000209557 0)
(-0.00123872 -0.000199528 0)
(-0.00107945 -0.000188929 0)
(-0.000928846 -0.000177778 0)
(-0.000787328 -0.000166095 0)
(-0.000655292 -0.000153906 0)
(-0.000533112 -0.000141242 0)
(-0.00042113 -0.000128143 0)
(-0.000319648 -0.000114654 0)
(-0.000228928 -0.000100834 0)
(-0.000149174 -8.6752e-05 0)
(-8.05268e-05 -7.24948e-05 0)
(-2.30473e-05 -5.81692e-05 0)
(2.33002e-05 -4.39078e-05 0)
(5.86696e-05 -2.98773e-05 0)
(8.33596e-05 -1.62877e-05 0)
(9.78471e-05 -3.40699e-06 0)
(0.000102828 8.42192e-06 0)
(9.92682e-05 1.87577e-05 0)
(8.84595e-05 2.70333e-05 0)
(7.20889e-05 3.25297e-05 0)
(5.22609e-05 3.43643e-05 0)
(3.15235e-05 3.15182e-05 0)
(1.34156e-05 2.30184e-05 0)
(2.77763e-06 8.77308e-06 0)
(3.20385e-06 -1.6946e-05 0)
(1.47442e-05 -3.94305e-05 0)
(3.31996e-05 -5.08628e-05 0)
(5.27068e-05 -5.26166e-05 0)
(6.91601e-05 -4.643e-05 0)
(7.96474e-05 -3.39771e-05 0)
(8.17557e-05 -1.67172e-05 0)
(7.35346e-05 4.13732e-06 0)
(5.3477e-05 2.76064e-05 0)
(2.04552e-05 5.29073e-05 0)
(-2.63405e-05 7.94186e-05 0)
(-8.74541e-05 0.000106647 0)
(-0.000163209 0.0001342 0)
(-0.000253746 0.000161764 0)
(-0.000359057 0.000189089 0)
(-0.000479006 0.000215974 0)
(-0.00061336 0.000242258 0)
(-0.000761799 0.000267811 0)
(-0.000923933 0.000292527 0)
(-0.00109932 0.000316324 0)
(-0.00128746 0.000339134 0)
(-0.00148784 0.000360904 0)
(-0.00169989 0.000381593 0)
(-0.00192303 0.000401168 0)
(-0.00215665 0.000419605 0)
(-0.00240015 0.000436888 0)
(-0.00265288 0.000453004 0)
(-0.00291421 0.000467947 0)
(-0.00318351 0.000481715 0)
(-0.00346013 0.000494309 0)
(-0.00374341 0.000505732 0)
(-0.00403273 0.000515992 0)
(-0.00432744 0.000525097 0)
(-0.0046269 0.000533059 0)
(-0.00493048 0.000539891 0)
(-0.00523755 0.000545605 0)
(-0.0055475 0.000550219 0)
(-0.00585972 0.000553749 0)
(-0.00617361 0.000556212 0)
(-0.00648857 0.000557627 0)
(-0.00680402 0.000558014 0)
(-0.00711938 0.000557391 0)
(-0.00743411 0.00055578 0)
(-0.00774765 0.000553202 0)
(-0.00805946 0.000549678 0)
(-0.00836901 0.000545229 0)
(-0.00867578 0.000539879 0)
(-0.00897929 0.00053365 0)
(-0.00927903 0.000526564 0)
(-0.00957453 0.000518644 0)
(-0.00986532 0.000509914 0)
(-0.010151 0.000500396 0)
(-0.010431 0.000490115 0)
(-0.010705 0.000479094 0)
(-0.0109726 0.000467357 0)
(-0.0112333 0.000454927 0)
(-0.0114869 0.000441829 0)
(-0.0117328 0.000428088 0)
(-0.0119708 0.000413726 0)
(-0.0122005 0.000398769 0)
(-0.0124216 0.00038324 0)
(-0.0126337 0.000367166 0)
(-0.0128366 0.00035057 0)
(-0.01303 0.000333477 0)
(-0.0132136 0.000315913 0)
(-0.013387 0.000297902 0)
(-0.0135502 0.00027947 0)
(-0.0137029 0.000260642 0)
(-0.0138448 0.000241444 0)
(-0.0139757 0.000221902 0)
(-0.0140955 0.000202041 0)
(-0.0142039 0.000181889 0)
(-0.0143009 0.000161471 0)
(-0.0143862 0.000140813 0)
(-0.0144599 0.000119943 0)
(-0.0145216 9.88882e-05 0)
(-0.0145714 7.76751e-05 0)
(-0.0146091 5.63314e-05 0)
(-0.0146348 3.48849e-05 0)
(-0.0146483 1.33636e-05 0)
(-0.0146496 -8.20446e-06 0)
(-0.0146387 -2.97907e-05 0)
(-0.0146156 -5.13664e-05 0)
(-0.0145803 -7.29028e-05 0)
(-0.0145329 -9.43705e-05 0)
(-0.0144733 -0.00011574 0)
(-0.0144017 -0.000136983 0)
(-0.0143182 -0.000158067 0)
(-0.0142228 -0.000178965 0)
(-0.0141156 -0.000199644 0)
(-0.0139968 -0.000220076 0)
(-0.0138666 -0.000240228 0)
(-0.013725 -0.000260072 0)
(-0.0135724 -0.000279575 0)
(-0.0134088 -0.000298707 0)
(-0.0132345 -0.000317437 0)
(-0.0130498 -0.000335734 0)
(-0.0128549 -0.000353567 0)
(-0.0126501 -0.000370904 0)
(-0.0124356 -0.000387714 0)
(-0.0122119 -0.000403967 0)
(-0.0119791 -0.000419632 0)
(-0.0117376 -0.000434678 0)
(-0.0114879 -0.000449075 0)
(-0.0112302 -0.000462791 0)
(-0.0109649 -0.000475798 0)
(-0.0106926 -0.000488065 0)
(-0.0104136 -0.000499563 0)
(-0.0101283 -0.000510264 0)
(-0.00983716 -0.000520138 0)
(-0.00954073 -0.000529159 0)
(-0.00923947 -0.000537297 0)
(-0.00893388 -0.000544528 0)
(-0.00862447 -0.000550824 0)
(-0.00831178 -0.000556161 0)
(-0.00799636 -0.000560514 0)
(-0.00767876 -0.000563859 0)
(-0.00735955 -0.000566175 0)
(-0.00703933 -0.000567439 0)
(-0.00671867 -0.000567631 0)
(-0.0063982 -0.000566732 0)
(-0.00607852 -0.000564724 0)
(-0.00576026 -0.00056159 0)
(-0.00544405 -0.000557316 0)
(-0.00513053 -0.000551888 0)
(-0.00482035 -0.000545295 0)
(-0.00451416 -0.000537526 0)
(-0.0042126 -0.000528574 0)
(-0.00391635 -0.000518433 0)
(-0.00362605 -0.000507101 0)
(-0.00334237 -0.000494576 0)
(-0.00306596 -0.000480861 0)
(-0.00279748 -0.000465963 0)
(-0.00253756 -0.00044989 0)
(-0.00228685 -0.000432656 0)
(-0.00204597 -0.000414279 0)
(-0.00181553 -0.000394782 0)
(-0.00159614 -0.000374196 0)
(-0.00138836 -0.000352556 0)
(-0.00119274 -0.000329907 0)
(-0.00100979 -0.000306305 0)
(-0.000840004 -0.000281815 0)
(-0.000683807 -0.000256516 0)
(-0.000541584 -0.000230507 0)
(-0.000413652 -0.000203904 0)
(-0.000300257 -0.000176848 0)
(-0.000201553 -0.000149512 0)
(-0.000117588 -0.000122109 0)
(-4.82816e-05 -9.48963e-05 0)
(6.60043e-06 -6.81944e-05 0)
(4.74755e-05 -4.23994e-05 0)
(7.49815e-05 -1.80045e-05 0)
(9.00192e-05 4.37434e-06 0)
(9.3801e-05 2.39684e-05 0)
(8.79076e-05 3.98236e-05 0)
(7.43449e-05 5.07743e-05 0)
(5.55534e-05 5.54387e-05 0)
(3.44365e-05 5.22639e-05 0)
(1.50601e-05 3.96963e-05 0)
(3.2145e-06 1.6671e-05 0)
(3.13292e-06 -2.49231e-05 0)
(1.404e-05 -5.53756e-05 0)
(3.06632e-05 -6.9216e-05 0)
(4.67639e-05 -6.91059e-05 0)
(5.7957e-05 -5.75596e-05 0)
(6.11102e-05 -3.68785e-05 0)
(5.36141e-05 -9.07038e-06 0)
(3.33333e-05 2.41718e-05 0)
(-1.41369e-06 6.14478e-05 0)
(-5.19118e-05 0.000101613 0)
(-0.000119106 0.000143738 0)
(-0.000203647 0.000187067 0)
(-0.000305941 0.000230991 0)
(-0.00042618 0.000275013 0)
(-0.000564382 0.000318732 0)
(-0.000720414 0.000361819 0)
(-0.000894019 0.00040401 0)
(-0.00108484 0.000445088 0)
(-0.00129242 0.000484876 0)
(-0.00151625 0.000523231 0)
(-0.00175574 0.000560038 0)
(-0.00201027 0.000595204 0)
(-0.00227917 0.000628655 0)
(-0.00256173 0.000660333 0)
(-0.00285722 0.000690195 0)
(-0.00316491 0.000718208 0)
(-0.00348401 0.000744348 0)
(-0.00381375 0.000768601 0)
(-0.00415334 0.000790959 0)
(-0.004502 0.00081142 0)
(-0.00485893 0.000829989 0)
(-0.00522333 0.000846673 0)
(-0.00559441 0.000861484 0)
(-0.00597139 0.000874439 0)
(-0.00635348 0.000885556 0)
(-0.0067399 0.000894856 0)
(-0.00712989 0.000902364 0)
(-0.00752268 0.000908105 0)
(-0.00791753 0.000912106 0)
(-0.00831369 0.000914397 0)
(-0.00871045 0.000915008 0)
(-0.00910709 0.000913971 0)
(-0.0095029 0.000911317 0)
(-0.00989719 0.000907082 0)
(-0.0102893 0.000901298 0)
(-0.0106786 0.000894002 0)
(-0.0110643 0.00088523 0)
(-0.011446 0.000875016 0)
(-0.0118229 0.000863399 0)
(-0.0121944 0.000850415 0)
(-0.0125601 0.000836103 0)
(-0.0129192 0.000820499 0)
(-0.0132714 0.000803643 0)
(-0.0136159 0.000785573 0)
(-0.0139523 0.000766327 0)
(-0.0142802 0.000745946 0)
(-0.014599 0.000724467 0)
(-0.0149082 0.000701932 0)
(-0.0152074 0.000678378 0)
(-0.0154962 0.000653848 0)
(-0.0157742 0.00062838 0)
(-0.0160409 0.000602015 0)
(-0.016296 0.000574794 0)
(-0.0165391 0.000546757 0)
(-0.0167698 0.000517947 0)
(-0.0169879 0.000488403 0)
(-0.017193 0.000458168 0)
(-0.0173849 0.000427284 0)
(-0.0175632 0.000395793 0)
(-0.0177278 0.000363737 0)
(-0.0178783 0.000331159 0)
(-0.0180146 0.000298102 0)
(-0.0181364 0.000264609 0)
(-0.0182436 0.000230725 0)
(-0.0183361 0.000196494 0)
(-0.0184136 0.000161959 0)
(-0.0184761 0.000127166 0)
(-0.0185235 9.21602e-05 0)
(-0.0185556 5.69868e-05 0)
(-0.0185724 2.16919e-05 0)
(-0.018574 -1.3678e-05 0)
(-0.0185601 -4.90763e-05 0)
(-0.018531 -8.44557e-05 0)
(-0.0184865 -0.000119769 0)
(-0.0184267 -0.000154967 0)
(-0.0183517 -0.000190004 0)
(-0.0182616 -0.000224829 0)
(-0.0181564 -0.000259393 0)
(-0.0180363 -0.000293649 0)
(-0.0179015 -0.000327545 0)
(-0.017752 -0.000361032 0)
(-0.0175882 -0.000394061 0)
(-0.0174102 -0.00042658 0)
(-0.0172182 -0.00045854 0)
(-0.0170125 -0.000489889 0)
(-0.0167933 -0.000520576 0)
(-0.0165611 -0.000550552 0)
(-0.016316 -0.000579765 0)
(-0.0160585 -0.000608164 0)
(-0.0157888 -0.000635699 0)
(-0.0155075 -0.000662319 0)
(-0.0152149 -0.000687973 0)
(-0.0149113 -0.000712612 0)
(-0.0145974 -0.000736185 0)
(-0.0142735 -0.000758644 0)
(-0.0139401 -0.000779939 0)
(-0.0135978 -0.000800022 0)
(-0.0132471 -0.000818846 0)
(-0.0128886 -0.000836363 0)
(-0.0125227 -0.000852527 0)
(-0.0121502 -0.000867293 0)
(-0.0117716 -0.000880616 0)
(-0.0113876 -0.000892454 0)
(-0.0109987 -0.000902764 0)
(-0.0106058 -0.000911505 0)
(-0.0102093 -0.000918639 0)
(-0.0098102 -0.000924126 0)
(-0.00940901 -0.000927932 0)
(-0.00900652 -0.000930022 0)
(-0.00860348 -0.000930362 0)
(-0.00820063 -0.000928923 0)
(-0.00779874 -0.000925676 0)
(-0.0073986 -0.000920596 0)
(-0.00700098 -0.000913658 0)
(-0.00660669 -0.000904843 0)
(-0.00621652 -0.000894133 0)
(-0.00583129 -0.000881513 0)
(-0.0054518 -0.000866972 0)
(-0.00507888 -0.000850504 0)
(-0.00471332 -0.000832104 0)
(-0.00435596 -0.000811775 0)
(-0.00400759 -0.000789522 0)
(-0.00366902 -0.000765359 0)
(-0.00334103 -0.000739303 0)
(-0.00302442 -0.00071138 0)
(-0.00271995 -0.000681622 0)
(-0.00242836 -0.000650072 0)
(-0.00215038 -0.000616782 0)
(-0.0018867 -0.000581817 0)
(-0.00163797 -0.000545254 0)
(-0.00140482 -0.000507187 0)
(-0.00118782 -0.000467729 0)
(-0.00098747 -0.000427017 0)
(-0.000804225 -0.000385213 0)
(-0.000638448 -0.000342512 0)
(-0.000490408 -0.00029915 0)
(-0.000360267 -0.000255408 0)
(-0.000248057 -0.000211631 0)
(-0.000153654 -0.000168231 0)
(-7.67565e-05 -0.000125714 0)
(-1.6851e-05 -8.46943e-05 0)
(2.68235e-05 -4.5924e-05 0)
(5.53156e-05 -1.03215e-05 0)
(7.00071e-05 2.09921e-05 0)
(7.26647e-05 4.66583e-05 0)
(6.54921e-05 6.50516e-05 0)
(5.11389e-05 7.42705e-05 0)
(3.27427e-05 7.21727e-05 0)
(1.46829e-05 5.64752e-05 0)
(3.20281e-06 2.48726e-05 0)
(2.77184e-06 -3.20964e-05 0)
(1.18561e-05 -6.90543e-05 0)
(2.45382e-05 -8.36267e-05 0)
(3.46607e-05 -7.97533e-05 0)
(3.77768e-05 -6.07767e-05 0)
(3.06401e-05 -2.96544e-05 0)
(1.05436e-05 1.10497e-05 0)
(-2.4743e-05 5.91589e-05 0)
(-7.69972e-05 0.000112848 0)
(-0.000147597 0.000170598 0)
(-0.000237573 0.000231156 0)
(-0.00034765 0.000293486 0)
(-0.000478287 0.000356738 0)
(-0.000629716 0.000420211 0)
(-0.000801974 0.00048333 0)
(-0.000994929 0.00054562 0)
(-0.00120831 0.00060669 0)
(-0.00144172 0.000666222 0)
(-0.00169466 0.00072395 0)
(-0.00196655 0.000779658 0)
(-0.00225674 0.000833171 0)
(-0.00256451 0.000884344 0)
(-0.0028891 0.000933063 0)
(-0.00322969 0.000979237 0)
(-0.00358546 0.00102279 0)
(-0.00395552 0.00106368 0)
(-0.004339 0.00110186 0)
(-0.00473498 0.0011373 0)
(-0.00514255 0.00116998 0)
(-0.00556078 0.00119991 0)
(-0.00598875 0.00122707 0)
(-0.00642552 0.00125149 0)
(-0.00687015 0.00127317 0)
(-0.00732172 0.00129214 0)
(-0.00777931 0.00130841 0)
(-0.008242 0.00132203 0)
(-0.00870888 0.00133301 0)
(-0.00917905 0.0013414 0)
(-0.00965162 0.00134724 0)
(-0.0101257 0.00135057 0)
(-0.0106005 0.00135142 0)
(-0.0110751 0.00134985 0)
(-0.0115486 0.0013459 0)
(-0.0120203 0.00133962 0)
(-0.0124894 0.00133106 0)
(-0.0129551 0.00132027 0)
(-0.0134165 0.0013073 0)
(-0.0138731 0.00129221 0)
(-0.0143239 0.00127505 0)
(-0.0147683 0.00125587 0)
(-0.0152057 0.00123473 0)
(-0.0156352 0.00121168 0)
(-0.0160564 0.00118678 0)
(-0.0164685 0.00116009 0)
(-0.0168709 0.00113167 0)
(-0.017263 0.00110156 0)
(-0.0176442 0.00106984 0)
(-0.018014 0.00103655 0)
(-0.0183719 0.00100176 0)
(-0.0187173 0.000965528 0)
(-0.0190497 0.000927908 0)
(-0.0193686 0.000888962 0)
(-0.0196736 0.000848751 0)
(-0.0199643 0.000807335 0)
(-0.0202402 0.000764775 0)
(-0.020501 0.000721132 0)
(-0.0207462 0.000676467 0)
(-0.0209756 0.000630844 0)
(-0.0211888 0.000584323 0)
(-0.0213855 0.000536968 0)
(-0.0215654 0.000488843 0)
(-0.0217283 0.000440011 0)
(-0.0218739 0.000390536 0)
(-0.022002 0.000340484 0)
(-0.0221125 0.000289919 0)
(-0.0222051 0.000238908 0)
(-0.0222797 0.000187517 0)
(-0.0223362 0.000135813 0)
(-0.0223745 8.3863e-05 0)
(-0.0223945 3.17356e-05 0)
(-0.0223962 -2.05007e-05 0)
(-0.0223795 -7.27768e-05 0)
(-0.0223445 -0.000125023 0)
(-0.0222911 -0.000177168 0)
(-0.0222195 -0.000229143 0)
(-0.0221297 -0.000280875 0)
(-0.0220218 -0.000332292 0)
(-0.0218959 -0.000383323 0)
(-0.0217522 -0.000433894 0)
(-0.0215908 -0.000483932 0)
(-0.021412 -0.000533364 0)
(-0.021216 -0.000582116 0)
(-0.021003 -0.000630113 0)
(-0.0207733 -0.000677281 0)
(-0.0205273 -0.000723545 0)
(-0.0202652 -0.000768831 0)
(-0.0199874 -0.000813063 0)
(-0.0196943 -0.000856167 0)
(-0.0193863 -0.000898068 0)
(-0.0190639 -0.000938691 0)
(-0.0187275 -0.000977962 0)
(-0.0183776 -0.00101581 0)
(-0.0180147 -0.00105215 0)
(-0.0176393 -0.00108692 0)
(-0.017252 -0.00112005 0)
(-0.0168535 -0.00115146 0)
(-0.0164443 -0.00118108 0)
(-0.016025 -0.00120884 0)
(-0.0155963 -0.00123468 0)
(-0.0151589 -0.00125852 0)
(-0.0147136 -0.0012803 0)
(-0.014261 -0.00129996 0)
(-0.0138018 -0.00131742 0)
(-0.013337 -0.00133264 0)
(-0.0128671 -0.00134555 0)
(-0.0123932 -0.00135609 0)
(-0.011916 -0.00136421 0)
(-0.0114363 -0.00136986 0)
(-0.010955 -0.00137298 0)
(-0.010473 -0.00137354 0)
(-0.00999117 -0.00137148 0)
(-0.00951046 -0.00136677 0)
(-0.00903178 -0.00135937 0)
(-0.00855605 -0.00134924 0)
(-0.00808422 -0.00133636 0)
(-0.00761722 -0.00132071 0)
(-0.00715602 -0.00130226 0)
(-0.00670158 -0.001281 0)
(-0.00625484 -0.00125693 0)
(-0.00581678 -0.00123003 0)
(-0.00538834 -0.00120033 0)
(-0.00497048 -0.00116782 0)
(-0.00456413 -0.00113253 0)
(-0.00417022 -0.00109449 0)
(-0.00378966 -0.00105375 0)
(-0.00342335 -0.00101035 0)
(-0.00307214 -0.000964365 0)
(-0.00273688 -0.000915874 0)
(-0.00241836 -0.000864977 0)
(-0.00211734 -0.000811794 0)
(-0.00183452 -0.000756469 0)
(-0.00157056 -0.000699175 0)
(-0.00132603 -0.000640117 0)
(-0.00110143 -0.000579538 0)
(-0.000897151 -0.000517728 0)
(-0.000713497 -0.000455034 0)
(-0.000550629 -0.000391869 0)
(-0.000408566 -0.000328726 0)
(-0.000287152 -0.000266198 0)
(-0.000186034 -0.000204996 0)
(-0.000104629 -0.000145976 0)
(-4.20922e-05 -9.01654e-05 0)
(2.72351e-06 -3.88027e-05 0)
(3.13045e-05 6.62903e-06 0)
(4.55254e-05 4.43615e-05 0)
(4.76985e-05 7.23051e-05 0)
(4.05892e-05 8.80262e-05 0)
(2.74707e-05 8.87555e-05 0)
(1.28264e-05 7.14129e-05 0)
(2.8995e-06 3.24436e-05 0)
(2.2281e-06 -3.78241e-05 0)
(8.63161e-06 -7.89553e-05 0)
(1.57434e-05 -9.20512e-05 0)
(1.78372e-05 -8.21898e-05 0)
(1.05923e-05 -5.35193e-05 0)
(-9.25342e-06 -9.64583e-06 0)
(-4.44235e-05 4.6317e-05 0)
(-9.71704e-05 0.000111715 0)
(-0.000169305 0.000184302 0)
(-0.000262245 0.000262187 0)
(-0.000377063 0.000343785 0)
(-0.000514519 0.000427773 0)
(-0.000675106 0.000513046 0)
(-0.000859074 0.000598685 0)
(-0.00106647 0.000683926 0)
(-0.00129716 0.000768132 0)
(-0.00155084 0.000850773 0)
(-0.0018271 0.000931411 0)
(-0.0021254 0.00100968 0)
(-0.0024451 0.00108528 0)
(-0.00278548 0.00115796 0)
(-0.00314575 0.00122752 0)
(-0.00352505 0.00129379 0)
(-0.0039225 0.00135665 0)
(-0.00433715 0.00141597 0)
(-0.00476802 0.0014717 0)
(-0.00521413 0.00152375 0)
(-0.00567444 0.0015721 0)
(-0.00614792 0.0016167 0)
(-0.00663353 0.00165756 0)
(-0.0071302 0.00169466 0)
(-0.00763689 0.00172801 0)
(-0.00815252 0.00175763 0)
(-0.00867604 0.00178354 0)
(-0.0092064 0.00180577 0)
(-0.00974255 0.00182435 0)
(-0.0102835 0.00183934 0)
(-0.0108281 0.00185078 0)
(-0.0113754 0.00185871 0)
(-0.0119244 0.00186319 0)
(-0.0124741 0.00186428 0)
(-0.0130236 0.00186204 0)
(-0.0135718 0.00185653 0)
(-0.0141179 0.00184782 0)
(-0.0146609 0.00183597 0)
(-0.0151999 0.00182105 0)
(-0.015734 0.00180313 0)
(-0.0162623 0.00178229 0)
(-0.0167841 0.0017586 0)
(-0.0172984 0.00173213 0)
(-0.0178045 0.00170296 0)
(-0.0183016 0.00167116 0)
(-0.018789 0.00163681 0)
(-0.0192658 0.00159998 0)
(-0.0197314 0.00156077 0)
(-0.0201851 0.00151924 0)
(-0.0206262 0.00147547 0)
(-0.0210541 0.00142955 0)
(-0.0214682 0.00138155 0)
(-0.0218678 0.00133156 0)
(-0.0222523 0.00127966 0)
(-0.0226213 0.00122593 0)
(-0.0229742 0.00117046 0)
(-0.0233104 0.00111332 0)
(-0.0236296 0.0010546 0)
(-0.0239313 0.00099439 0)
(-0.0242149 0.000932771 0)
(-0.0244803 0.000869828 0)
(-0.0247268 0.000805649 0)
(-0.0249543 0.00074032 0)
(-0.0251624 0.000673928 0)
(-0.0253507 0.000606562 0)
(-0.025519 0.000538311 0)
(-0.0256672 0.000469265 0)
(-0.0257948 0.000399513 0)
(-0.0259018 0.000329147 0)
(-0.025988 0.000258259 0)
(-0.0260532 0.000186941 0)
(-0.0260974 0.000115286 0)
(-0.0261204 4.3389e-05 0)
(-0.0261222 -2.86558e-05 0)
(-0.0261028 -0.000100753 0)
(-0.0260621 -0.000172805 0)
(-0.0260002 -0.000244717 0)
(-0.0259173 -0.000316389 0)
(-0.0258132 -0.000387724 0)