/*--------------------------------*- C++ -*----------------------------------*\
  =========                 |
  \\      /  F ield         | OpenFOAM: The Open Source CFD Toolbox
   \\    /   O peration     | Website:  https://openfoam.org
    \\  /    A nd           | Version:  7
     \\/     M anipulation  |
\*---------------------------------------------------------------------------*/
FoamFile
{
    version     2.0;
    format      ascii;
    class       surfaceScalarField;
    location    "0.025";
    object      phi;
}
// * * * * * * * * * * * * * * * * * * * * * * * * * * * * * * * * * * * * * //

dimensions      [0 3 -1 0 0 0 0];

internalField   nonuniform List<scalar> 
50880
(
4.07584e-11
-4.07481e-11
2.24088e-10
-1.83336e-10
6.92007e-10
-4.67918e-10
1.34602e-09
-6.54013e-10
2.11563e-09
-7.69609e-10
2.95838e-09
-8.42758e-10
3.84049e-09
-8.82102e-10
4.73116e-09
-8.90673e-10
5.58734e-09
-8.56181e-10
6.37911e-09
-7.9177e-10
7.07909e-09
-6.99974e-10
7.65573e-09
-5.76639e-10
8.08864e-09
-4.32907e-10
8.36286e-09
-2.74218e-10
8.47827e-09
-1.15412e-10
8.43639e-09
4.18741e-11
8.2467e-09
1.89697e-10
7.9261e-09
3.206e-10
7.49543e-09
4.30676e-10
6.97759e-09
5.17833e-10
6.38667e-09
5.9093e-10
5.73972e-09
6.46942e-10
5.05636e-09
6.8336e-10
4.35212e-09
7.04247e-10
3.64529e-09
7.06825e-10
2.94151e-09
7.0378e-10
2.25527e-09
6.86242e-10
1.5913e-09
6.63965e-10
9.65538e-10
6.25766e-10
3.75905e-10
5.89629e-10
-1.64451e-10
5.40352e-10
-6.56075e-10
4.91622e-10
-1.09043e-09
4.34357e-10
-1.46806e-09
3.77631e-10
-1.792e-09
3.23942e-10
-2.06781e-09
2.75805e-10
-2.29712e-09
2.29317e-10
-2.48681e-09
1.89683e-10
-2.64128e-09
1.54471e-10
-2.7596e-09
1.18314e-10
-2.84304e-09
8.34429e-11
-2.89167e-09
4.86291e-11
-2.90227e-09
1.05957e-11
-2.87197e-09
-3.03009e-11
-2.80413e-09
-6.78389e-11
-2.70403e-09
-1.00097e-10
-2.5798e-09
-1.24229e-10
-2.44705e-09
-1.32746e-10
-2.32105e-09
-1.25999e-10
-2.21398e-09
-1.07068e-10
-2.13564e-09
-7.83341e-11
-2.09508e-09
-4.05549e-11
-2.0979e-09
2.81995e-12
-2.14167e-09
4.37643e-11
-2.22109e-09
7.94271e-11
-2.32978e-09
1.08684e-10
-2.45991e-09
1.30135e-10
-2.60418e-09
1.44268e-10
-2.75764e-09
1.53462e-10
-2.91917e-09
1.61532e-10
-3.0874e-09
1.68234e-10
-3.25881e-09
1.71402e-10
-3.4301e-09
1.71289e-10
-3.59784e-09
1.67742e-10
-3.75834e-09
1.60495e-10
-3.90892e-09
1.50579e-10
-4.04837e-09
1.39451e-10
-4.17732e-09
1.28952e-10
-4.29751e-09
1.20197e-10
-4.40952e-09
1.12011e-10
-4.51172e-09
1.02193e-10
-4.60203e-09
9.03101e-11
-4.67865e-09
7.66218e-11
-4.73848e-09
5.98345e-11
-4.77853e-09
4.00483e-11
-4.79852e-09
1.99845e-11
-4.80035e-09
1.83444e-12
-4.78782e-09
-1.25408e-11
-4.76593e-09
-2.18871e-11
-4.73826e-09
-2.76679e-11
-4.70719e-09
-3.10663e-11
-4.6751e-09
-3.20975e-11
-4.6419e-09
-3.31955e-11
-4.60601e-09
-3.58856e-11
-4.56828e-09
-3.77327e-11
-4.53035e-09
-3.79257e-11
-4.49335e-09
-3.69934e-11
-4.4617e-09
-3.16526e-11
-4.44111e-09
-2.05966e-11
-4.43254e-09
-8.57133e-12
-4.43525e-09
2.71555e-12
-4.45146e-09
1.62058e-11
-4.481e-09
2.95412e-11
-4.51791e-09
3.6913e-11
-4.55645e-09
3.85395e-11
-4.59305e-09
3.66074e-11
-4.62161e-09
2.85631e-11
-4.63503e-09
1.34206e-11
-4.63067e-09
-4.37041e-12
-4.60799e-09
-2.26788e-11
-4.56457e-09
-4.34257e-11
-4.49945e-09
-6.51177e-11
-4.41547e-09
-8.39731e-11
-4.31376e-09
-1.01711e-10
-4.19096e-09
-1.22796e-10
-4.04462e-09
-1.46338e-10
-3.87587e-09
-1.68753e-10
-3.68526e-09
-1.90612e-10
-3.47165e-09
-2.1361e-10
-3.23668e-09
-2.34978e-10
-2.98538e-09
-2.51301e-10
-2.7216e-09
-2.63775e-10
-2.44706e-09
-2.74533e-10
-2.16493e-09
-2.82139e-10
-1.87949e-09
-2.85433e-10
-1.59181e-09
-2.87687e-10
-1.29951e-09
-2.92293e-10
-1.002e-09
-2.97514e-10
-7.02399e-10
-2.99596e-10
-4.04073e-10
-2.98323e-10
-1.08696e-10
-2.95373e-10
1.80801e-10
-2.89496e-10
4.5862e-10
-2.77819e-10
7.19242e-10
-2.60621e-10
9.60255e-10
-2.41009e-10
1.18117e-09
-2.20909e-10
1.38172e-09
-2.00554e-10
1.56327e-09
-1.81555e-10
1.73105e-09
-1.67782e-10
1.89299e-09
-1.6194e-10
2.05539e-09
-1.62395e-10
2.22074e-09
-1.65351e-10
2.39025e-09
-1.69518e-10
2.56597e-09
-1.75719e-10
2.74863e-09
-1.82662e-10
2.93531e-09
-1.8668e-10
3.1199e-09
-1.84591e-10
3.29462e-09
-1.74717e-10
3.45129e-09
-1.56669e-10
3.58145e-09
-1.30163e-10
3.67594e-09
-9.44928e-11
3.72762e-09
-5.16774e-11
3.73409e-09
-6.46429e-12
3.69578e-09
3.83108e-11
3.61486e-09
8.09145e-11
3.49418e-09
1.2068e-10
3.33459e-09
1.5959e-10
3.13627e-09
1.98317e-10
2.89961e-09
2.36668e-10
2.62457e-09
2.7503e-10
2.31365e-09
3.10923e-10
1.97131e-09
3.42335e-10
1.60191e-09
3.69405e-10
1.21201e-09
3.89897e-10
8.15075e-10
3.96936e-10
4.37272e-10
3.77802e-10
1.21091e-10
3.16181e-10
-7.10721e-11
1.92163e-10
-7.91781e-11
8.10646e-12
-7.91784e-11
-4.1475e-11
7.27932e-13
9.80309e-11
-3.22836e-10
6.29825e-10
-9.99711e-10
1.46298e-09
-1.48717e-09
2.49351e-09
-1.80013e-09
3.63795e-09
-1.9872e-09
4.8216e-09
-2.06576e-09
5.98994e-09
-2.059e-09
7.10258e-09
-1.96883e-09
8.11681e-09
-1.806e-09
8.98614e-09
-1.56931e-09
9.68679e-09
-1.27729e-09
1.01933e-08
-9.39382e-10
1.04938e-08
-5.74701e-10
1.0577e-08
-1.98679e-10
1.04498e-08
1.69145e-10
1.01266e-08
5.12852e-10
9.62107e-09
8.26118e-10
8.95619e-09
1.09555e-09
8.14779e-09
1.32623e-09
7.22937e-09
1.50935e-09
6.22111e-09
1.65521e-09
5.14625e-09
1.75822e-09
4.02224e-09
1.82825e-09
2.8669e-09
1.86217e-09
1.70045e-09
1.87022e-09
5.37749e-10
1.84894e-09
-6.05864e-10
1.80758e-09
-1.72424e-09
1.74414e-09
-2.79831e-09
1.6637e-09
-3.82254e-09
1.56458e-09
-4.79121e-09
1.46029e-09
-5.69902e-09
1.34217e-09
-6.54499e-09
1.2236e-09
-7.32928e-09
1.10823e-09
-8.05194e-09
9.98474e-10
-8.71981e-09
8.97188e-10
-9.33704e-09
8.06924e-10
-9.90381e-09
7.21238e-10
-1.0421e-08
6.35525e-10
-1.08888e-08
5.51276e-10
-1.13032e-08
4.62999e-10
-1.16628e-08
3.70225e-10
-1.19713e-08
2.78122e-10
-1.22319e-08
1.9282e-10
-1.24525e-08
1.20481e-10
-1.26447e-08
6.80075e-11
-1.28217e-08
4.42221e-11
-1.29968e-08
4.90331e-11
-1.31834e-08
7.95901e-11
-1.33953e-08
1.33538e-10
-1.36401e-08
2.04282e-10
-1.39212e-08
2.83915e-10
-1.42397e-08
3.62227e-10
-1.45923e-08
4.32057e-10
-1.49729e-08
4.89222e-10
-1.53735e-08
5.30768e-10
-1.57878e-08
5.5858e-10
-1.62107e-08
5.76399e-10
-1.6637e-08
5.87801e-10
-1.70625e-08
5.93717e-10
-1.74833e-08
5.92213e-10
-1.78952e-08
5.83185e-10
-1.82944e-08
5.66933e-10
-1.86766e-08
5.42679e-10
-1.9038e-08
5.11978e-10
-1.93771e-08
4.78576e-10
-1.96933e-08
4.4516e-10
-1.99854e-08
4.12302e-10
-2.02527e-08
3.79239e-10
-2.04946e-08
3.44096e-10
-2.07093e-08
3.05033e-10
-2.08942e-08
2.61514e-10
-2.10474e-08
2.13092e-10
-2.11678e-08
1.60372e-10
-2.1255e-08
1.07205e-10
-2.13109e-08
5.78094e-11
-2.13383e-08
1.47969e-11
-2.13405e-08
-1.96429e-11
-2.13221e-08
-4.60682e-11
-2.12855e-08
-6.76731e-11
-2.12322e-08
-8.54244e-11
-2.11656e-08
-9.97553e-11
-2.10876e-08
-1.13903e-10
-2.09968e-08
-1.28519e-10
-2.08955e-08
-1.39298e-10
-2.07889e-08
-1.43561e-10
-2.06788e-08
-1.4179e-10
-2.05655e-08
-1.33812e-10
-2.04539e-08
-1.2021e-10
-2.03468e-08
-1.04378e-10
-2.02411e-08
-8.94852e-11
-2.01338e-08
-7.78174e-11
-2.00234e-08
-7.34766e-11
-1.99042e-08
-8.06558e-11
-1.97675e-08
-1.00102e-10
-1.96083e-08
-1.30568e-10
-1.94237e-08
-1.71228e-10
-1.92077e-08
-2.20346e-10
-1.89559e-08
-2.74455e-10
-1.86689e-08
-3.3049e-10
-1.8347e-08
-3.86928e-10
-1.7988e-08
-4.43025e-10
-1.75907e-08
-4.98978e-10
-1.71572e-08
-5.56297e-10
-1.66875e-08
-6.1612e-10
-1.61788e-08
-6.77428e-10
-1.56316e-08
-7.37779e-10
-1.50502e-08
-7.94975e-10
-1.44379e-08
-8.4733e-10
-1.37959e-08
-8.93283e-10
-1.3128e-08
-9.31671e-10
-1.24404e-08
-9.62166e-10
-1.17371e-08
-9.85432e-10
-1.10194e-08
-1.00315e-09
-1.02896e-08
-1.01748e-09
-9.55205e-09
-1.02981e-09
-8.80991e-09
-1.03966e-09
-8.06442e-09
-1.04509e-09
-7.31871e-09
-1.04403e-09
-6.57922e-09
-1.03487e-09
-5.85257e-09
-1.01615e-09
-5.14323e-09
-9.87153e-10
-4.45498e-09
-9.48878e-10
-3.79222e-09
-9.03762e-10
-3.15817e-09
-8.54961e-10
-2.55224e-09
-8.06494e-10
-1.97083e-09
-7.62959e-10
-1.4103e-09
-7.28316e-10
-8.67486e-10
-7.04754e-10
-3.38151e-10
-6.91729e-10
1.82576e-10
-6.86076e-10
6.97226e-10
-6.84163e-10
1.20455e-09
-6.83043e-10
1.70099e-09
-6.79093e-10
2.1824e-09
-6.68094e-10
2.64396e-09
-6.4615e-10
3.07805e-09
-6.08805e-10
3.47377e-09
-5.52397e-10
3.81978e-09
-4.76181e-10
4.10658e-09
-3.81299e-10
4.32695e-09
-2.72045e-10
4.4763e-09
-1.55816e-10
4.55252e-09
-3.7907e-11
4.55536e-09
7.80676e-11
4.4863e-09
1.89745e-10
4.34641e-09
2.99482e-10
4.13546e-09
4.09268e-10
3.85432e-09
5.17812e-10
3.50592e-09
6.23431e-10
3.09523e-09
7.21623e-10
2.62973e-09
8.07833e-10
2.11961e-09
8.79531e-10
1.58053e-09
9.28972e-10
1.03874e-09
9.3873e-10
5.34476e-10
8.82061e-10
1.23855e-10
7.26799e-10
-1.15799e-10
4.31816e-10
-1.12104e-10
4.41382e-12
-1.91283e-10
-3.42292e-10
3.4302e-10
-5.70699e-10
-9.44296e-11
-3.82376e-10
-1.18803e-09
1.24366e-10
-1.99391e-09
8.11785e-10
-2.48755e-09
1.57492e-09
-2.75033e-09
2.36548e-09
-2.85632e-09
3.12422e-09
-2.81773e-09
3.813e-09
-2.65761e-09
4.4003e-09
-2.39329e-09
4.8774e-09
-2.04641e-09
5.22103e-09
-1.62092e-09
5.41872e-09
-1.13708e-09
5.46975e-09
-6.25725e-10
5.37087e-09
-9.97979e-11
5.12317e-09
4.16854e-10
4.72818e-09
9.07852e-10
4.19334e-09
1.36096e-09
3.53108e-09
1.7578e-09
2.75511e-09
2.1022e-09
1.87464e-09
2.38983e-09
9.06122e-10
2.62372e-09
-1.39879e-10
2.80422e-09
-1.24367e-09
2.93204e-09
-2.39898e-09
3.01748e-09
-3.58446e-09
3.0557e-09
-4.80246e-09
3.06694e-09
-6.02789e-09
3.033e-09
-7.26127e-09
2.97752e-09
-8.48558e-09
2.88801e-09
-9.70534e-09
2.78434e-09
-1.09017e-08
2.65667e-09
-1.20802e-08
2.52068e-09
-1.32338e-08
2.37713e-09
-1.43601e-08
2.23457e-09
-1.54583e-08
2.09671e-09
-1.65254e-08
1.96426e-09
-1.75578e-08
1.83931e-09
-1.85563e-08
1.71974e-09
-1.95214e-08
1.60064e-09
-2.04511e-08
1.48098e-09
-2.13462e-08
1.35811e-09
-2.22074e-08
1.23139e-09
-2.30366e-08
1.10734e-09
-2.38357e-08
9.9193e-10
-2.46085e-08
8.93261e-10
-2.53603e-08
8.19764e-10
-2.60939e-08
7.77834e-10
-2.6814e-08
7.69217e-10
-2.75248e-08
7.90319e-10
-2.82298e-08
8.38543e-10
-2.89322e-08
9.06701e-10
-2.96326e-08
9.84285e-10
-3.03327e-08
1.06232e-09
-3.10324e-08
1.13183e-09
-3.17307e-08
1.18746e-09
-3.2426e-08
1.22605e-09
-3.31152e-08
1.24786e-09
-3.37959e-08
1.25702e-09
-3.44639e-08
1.25581e-09
-3.5115e-08
1.24481e-09
-3.57469e-08
1.22411e-09
-3.63569e-08
1.19317e-09
-3.6942e-08
1.15211e-09
-3.75007e-08
1.10132e-09
-3.80309e-08
1.04219e-09
-3.85303e-08
9.78019e-10
-3.89969e-08
9.11749e-10
-3.9429e-08
8.44429e-10
-3.9825e-08
7.75189e-10
-4.01833e-08
7.02392e-10
-4.05036e-08
6.25338e-10
-4.07856e-08
5.43545e-10
-4.10288e-08
4.56323e-10
-4.12335e-08
3.64997e-10
-4.13998e-08
2.73539e-10
-4.15286e-08
1.86579e-10
-4.16209e-08
1.07099e-10
-4.16762e-08
3.56546e-11
-4.16945e-08
-2.77196e-11
-4.16792e-08
-8.29588e-11
-4.16322e-08
-1.32438e-10
-4.15525e-08
-1.79493e-10
-4.14422e-08
-2.24135e-10
-4.13058e-08
-2.64941e-10
-4.11432e-08
-3.01947e-10
-4.09532e-08
-3.33575e-10
-4.07385e-08
-3.56451e-10
-4.05011e-08
-3.71227e-10
-4.02392e-08
-3.82116e-10
-3.99525e-08
-3.91097e-10
-3.96424e-08
-3.99543e-10
-3.93074e-08
-4.12809e-10
-3.89441e-08
-4.36775e-10
-3.85514e-08
-4.7332e-10
-3.81286e-08
-5.22932e-10
-3.76725e-08
-5.86728e-10
-3.71803e-08
-6.63426e-10
-3.66515e-08
-7.49123e-10
-3.6085e-08
-8.40941e-10
-3.54785e-08
-9.37038e-10
-3.4831e-08
-1.03436e-09
-3.41434e-08
-1.13063e-09
-3.34154e-08
-1.22695e-09
-3.26465e-08
-1.3252e-09
-3.18381e-08
-1.42453e-09
-3.09928e-08
-1.52281e-09
-3.01117e-08
-1.61886e-09
-2.91956e-08
-1.71104e-09
-2.82469e-08
-1.79605e-09
-2.72689e-08
-1.87126e-09
-2.62641e-08
-1.93645e-09
-2.52344e-08
-1.99185e-09
-2.4183e-08
-2.03689e-09
-2.3114e-08
-2.07213e-09
-2.20312e-08
-2.10026e-09
-2.09377e-08
-2.12337e-09
-1.98369e-08
-2.14038e-09
-1.87335e-08
-2.14848e-09
-1.76317e-08
-2.1459e-09
-1.65346e-08
-2.13192e-09
-1.54455e-08
-2.10526e-09
-1.4368e-08
-2.06469e-09
-1.33054e-08
-2.01145e-09
-1.226e-08
-1.94919e-09
-1.1233e-08
-1.88188e-09
-1.02262e-08
-1.81332e-09
-9.24121e-09
-1.74797e-09
-8.27912e-09
-1.69041e-09
-7.34046e-09
-1.64342e-09
-6.42571e-09
-1.60648e-09
-5.53592e-09
-1.57586e-09
-4.67295e-09
-1.54714e-09
-3.83914e-09
-1.51685e-09
-3.03735e-09
-1.48088e-09
-2.27148e-09
-1.43397e-09
-1.54639e-09
-1.37125e-09
-8.67286e-10
-1.2879e-09
-2.39417e-10
-1.18027e-09
3.32175e-10
-1.04777e-09
8.42729e-10
-8.9185e-10
1.28758e-09
-7.16898e-10
1.6624e-09
-5.30633e-10
1.96373e-09
-3.39236e-10
2.18875e-09
-1.46952e-10
2.33506e-09
4.34408e-11
2.4017e-09
2.32834e-10
2.38934e-09
4.21632e-10
2.29983e-09
6.07323e-10
2.1369e-09
7.86355e-10
1.90549e-09
9.53032e-10
1.61297e-09
1.10035e-09
1.27207e-09
1.22043e-09
9.01452e-10
1.29959e-09
5.27099e-10
1.31308e-09
1.83476e-10
1.22569e-09
-8.39362e-11
9.94212e-10
-2.10678e-10
5.58557e-10
-1.3677e-10
-6.94918e-11
-3.28056e-10
-5.41785e-10
8.84804e-10
-1.07797e-09
4.41744e-10
-1.20526e-09
-1.06073e-09
-1.01956e-09
-2.17962e-09
-6.68821e-10
-2.83828e-09
-2.34746e-10
-3.18441e-09
1.90881e-10
-3.28194e-09
5.70576e-10
-3.19743e-09
8.85446e-10
-2.97249e-09
1.10852e-09
-2.61637e-09
1.22793e-09
-2.16581e-09
1.24315e-09
-1.63614e-09
1.15554e-09
-1.04946e-09
9.56899e-10
-4.27098e-10
6.4868e-10
2.08412e-10
2.32109e-10
8.33425e-10
-2.88953e-10
1.42891e-09
-9.11171e-10
1.98319e-09
-1.64059e-09
2.48722e-09
-2.46448e-09
2.92609e-09
-3.38431e-09
3.30966e-09
-4.38402e-09
3.62343e-09
-5.46164e-09
3.88184e-09
-6.6105e-09
4.0809e-09
-7.81949e-09
4.22647e-09
-9.08605e-09
4.32226e-09
-1.03911e-08
4.37198e-09
-1.17373e-08
4.37921e-09
-1.31134e-08
4.35365e-09
-1.45151e-08
4.28971e-09
-1.59332e-08
4.20242e-09
-1.73663e-08
4.08973e-09
-1.88092e-08
3.96356e-09
-2.02555e-08
3.82351e-09
-2.17021e-08
3.68113e-09
-2.31438e-08
3.53844e-09
-2.4577e-08
3.39746e-09
-2.59974e-08
3.25968e-09
-2.74001e-08
3.1224e-09
-2.8783e-08
2.98357e-09
-3.01442e-08
2.84223e-09
-3.14846e-08
2.6985e-09
-3.28069e-08
2.55363e-09
-3.41121e-08
2.41259e-09
-3.54002e-08
2.27999e-09
-3.66703e-08
2.16337e-09
-3.79217e-08
2.07119e-09
-3.91509e-08
2.00701e-09
-4.03558e-08
1.97409e-09
-4.15364e-08
1.97093e-09
-4.26909e-08
1.9931e-09
-4.3818e-08
2.03382e-09
-4.49164e-08
2.08266e-09
-4.59866e-08
2.13247e-09
-4.70304e-08
2.17565e-09
-4.80478e-08
2.20492e-09
-4.904e-08
2.21825e-09
-5.00075e-08
2.21533e-09
-5.09484e-08
2.1979e-09
-5.18605e-08
2.16797e-09
-5.27409e-08
2.12521e-09
-5.35874e-08
2.07056e-09
-5.43992e-08
2.00497e-09
-5.51745e-08
1.92746e-09
-5.59117e-08
1.83848e-09
-5.66099e-08
1.74039e-09
-5.72678e-08
1.63595e-09
-5.78833e-08
1.52726e-09
-5.84536e-08
1.41468e-09
-5.89766e-08
1.29818e-09
-5.94522e-08
1.17797e-09
-5.98801e-08
1.05328e-09
-6.02598e-08
9.23252e-10
-6.0592e-08
7.88471e-10
-6.08779e-08
6.50969e-10
-6.1118e-08
5.13643e-10
-6.13109e-08
3.79479e-10
-6.14553e-08
2.51481e-10
-6.15516e-08
1.3199e-10
-6.16001e-08
2.07021e-11
-6.15989e-08
-8.41474e-11
-6.15484e-08
-1.82902e-10
-6.14517e-08
-2.76182e-10
-6.13095e-08
-3.6641e-10
-6.11206e-08
-4.53828e-10
-6.08872e-08
-5.35287e-10
-6.06117e-08
-6.09077e-10
-6.02919e-08
-6.76306e-10
-5.99254e-08
-7.37734e-10
-5.95135e-08
-7.93946e-10
-5.90569e-08
-8.47681e-10
-5.85535e-08
-9.02947e-10
-5.80029e-08
-9.63475e-10
-5.74066e-08
-1.03307e-09
-5.67649e-08
-1.11499e-09
-5.60774e-08
-1.2104e-09
-5.53454e-08
-1.31881e-09
-5.45696e-08
-1.43918e-09
-5.37493e-08
-1.56939e-09
-5.28842e-08
-1.70604e-09
-5.19752e-08
-1.84602e-09
-5.10221e-08
-1.98751e-09
-5.00235e-08
-2.12918e-09
-4.89804e-08
-2.27009e-09
-4.78952e-08
-2.41036e-09
-4.67695e-08
-2.55025e-09
-4.5604e-08
-2.6883e-09
-4.44013e-08
-2.82154e-09
-4.31648e-08
-2.94762e-09
-4.18956e-08
-3.06524e-09
-4.05941e-08
-3.17272e-09
-3.92628e-08
-3.26777e-09
-3.79054e-08
-3.3492e-09
-3.65246e-08
-3.41774e-09
-3.51219e-08
-3.47479e-09
-3.37012e-08
-3.52099e-09
-3.22682e-08
-3.55639e-09
-3.08276e-08
-3.58098e-09
-2.93819e-08
-3.59412e-09
-2.79339e-08
-3.5939e-09
-2.64877e-08
-3.57819e-09
-2.50468e-08
-3.54615e-09
-2.3613e-08
-3.49851e-09
-2.21873e-08
-3.43706e-09
-2.07724e-08
-3.36415e-09
-1.93715e-08
-3.28277e-09
-1.79877e-08
-3.19709e-09
-1.66237e-08
-3.11199e-09
-1.52831e-08
-3.03104e-09
-1.39709e-08
-2.95559e-09
-1.26922e-08
-2.8852e-09
-1.14504e-08
-2.81766e-09
-1.02485e-08
-2.749e-09
-9.09048e-09
-2.67488e-09
-7.98067e-09
-2.59069e-09
-6.92317e-09
-2.49147e-09
-5.92142e-09
-2.373e-09
-4.97825e-09
-2.23109e-09
-4.09661e-09
-2.0619e-09
-3.27922e-09
-1.86517e-09
-2.52795e-09
-1.64312e-09
-1.84536e-09
-1.39948e-09
-1.23527e-09
-1.14072e-09
-7.01964e-10
-8.72541e-10
-2.49858e-10
-5.99056e-10
1.17974e-10
-3.24388e-10
4.00568e-10
-4.97586e-11
5.98027e-10
2.24174e-10
7.11756e-10
4.93596e-10
7.45284e-10
7.52828e-10
7.04181e-10
9.94135e-10
5.96871e-10
1.20766e-09
4.36263e-10
1.38104e-09
2.40431e-10
1.49542e-09
3.29822e-11
1.52053e-09
-1.55455e-10
1.41412e-09
-2.84774e-10
1.12353e-09
-3.0037e-10
5.74153e-10
-1.56833e-10
-2.13026e-10
-4.8489e-10
-6.56906e-10
1.54171e-09
-1.41048e-09
1.19532e-09
-1.76148e-09
-7.09736e-10
-1.80493e-09
-2.13616e-09
-1.69568e-09
-2.94753e-09
-1.53196e-09
-3.34814e-09
-1.37366e-09
-3.44024e-09
-1.25826e-09
-3.31283e-09
-1.23002e-09
-3.00072e-09
-1.27961e-09
-2.56678e-09
-1.42636e-09
-2.01906e-09
-1.66806e-09
-1.39445e-09
-2.00491e-09
-7.12603e-10
-2.43309e-09
1.09958e-12
-2.94661e-09
7.21927e-10
-3.54939e-09
1.4362e-09
-4.24468e-09
2.1242e-09
-5.02776e-09
2.76627e-09
-5.89851e-09
3.35798e-09
-6.85926e-09
3.88684e-09
-7.90055e-09
4.35095e-09
-9.03038e-09
4.75326e-09
-1.02378e-08
5.08922e-09
-1.15223e-08
5.36546e-09
-1.28738e-08
5.57796e-09
-1.42931e-08
5.74154e-09
-1.57675e-08
5.84636e-09
-1.7302e-08
5.91377e-09
-1.88772e-08
5.92887e-09
-2.05011e-08
5.91356e-09
-2.21606e-08
5.86193e-09
-2.38555e-08
5.78457e-09
-2.55767e-08
5.68484e-09
-2.73221e-08
5.56891e-09
-2.90839e-08
5.44285e-09
-3.08558e-08
5.31035e-09
-3.26334e-08
5.17514e-09
-3.44109e-08
5.03718e-09
-3.61845e-08
4.89596e-09
-3.7952e-08
4.75105e-09
-3.97097e-08
4.59992e-09
-4.14556e-08
4.44444e-09
-4.31898e-08
4.28786e-09
-4.49117e-08
4.13448e-09
-4.66209e-08
3.98913e-09
-4.83146e-08
3.85706e-09
-4.99889e-08
3.74556e-09
-5.16386e-08
3.65664e-09
-5.32572e-08
3.59277e-09
-5.48411e-08
3.55482e-09
-5.63855e-08
3.53744e-09
-5.7887e-08
3.53534e-09
-5.93448e-08
3.54053e-09
-6.07576e-08
3.54527e-09
-6.21261e-08
3.54411e-09
-6.34512e-08
3.53004e-09
-6.47339e-08
3.50095e-09
-6.59758e-08
3.45722e-09
-6.71756e-08
3.39767e-09
-6.83314e-08
3.32375e-09
-6.94427e-08
3.23655e-09
-7.0508e-08
3.13588e-09
-7.15255e-08
3.02245e-09
-7.24943e-08
2.89626e-09
-7.3414e-08
2.75813e-09
-7.42837e-08
2.61007e-09
-7.51015e-08
2.45383e-09
-7.58657e-08
2.29141e-09
-7.65747e-08
2.1237e-09
-7.72268e-08
1.9503e-09
-7.78206e-08
1.77179e-09
-7.83559e-08
1.58858e-09
-7.88332e-08
1.40054e-09
-7.92533e-08
1.20857e-09
-7.96161e-08
1.01377e-09
-7.9921e-08
8.18526e-10
-8.01685e-08
6.26967e-10
-8.03578e-08
4.40766e-10
-8.04854e-08
2.59608e-10
-8.05502e-08
8.55225e-11
-8.05542e-08
-8.00918e-11
-8.0497e-08
-2.40133e-10
-8.03762e-08
-3.96979e-10
-8.01934e-08
-5.49249e-10
-7.99514e-08
-6.95777e-10
-7.96496e-08
-8.37117e-10
-7.92859e-08
-9.7279e-10
-7.88605e-08
-1.10165e-09
-7.83738e-08
-1.22448e-09
-7.78242e-08
-1.34357e-09
-7.72107e-08
-1.46117e-09
-7.65339e-08
-1.57977e-09
-7.57945e-08
-1.70278e-09
-7.49938e-08
-1.83381e-09
-7.41333e-08
-1.97551e-09
-7.32148e-08
-2.12889e-09
-7.22403e-08
-2.29334e-09
-7.12118e-08
-2.46766e-09
-7.01307e-08
-2.65047e-09
-6.89973e-08
-2.83946e-09
-6.78121e-08
-3.03117e-09
-6.65768e-08
-3.22282e-09
-6.52923e-08
-3.41369e-09
-6.39587e-08
-3.60377e-09
-6.25771e-08
-3.7919e-09
-6.11511e-08
-3.97624e-09
-5.96838e-08
-4.15559e-09
-5.81765e-08
-4.32889e-09
-5.66302e-08
-4.49392e-09
-5.50477e-08
-4.64773e-09
-5.34321e-08
-4.78828e-09
-5.17851e-08
-4.91477e-09
-5.01078e-08
-5.02654e-09
-4.84028e-08
-5.1227e-09
-4.66745e-08
-5.20319e-09
-4.49265e-08
-5.26895e-09
-4.31622e-08
-5.32064e-09
-4.13856e-08
-5.35762e-09
-3.96012e-08
-5.37847e-09
-3.78132e-08
-5.38193e-09
-3.6024e-08
-5.36739e-09
-3.42355e-08
-5.33471e-09
-3.245e-08
-5.28398e-09
-3.06708e-08
-5.21623e-09
-2.8901e-08
-5.13395e-09
-2.71433e-08
-5.04048e-09
-2.54013e-08
-4.93914e-09
-2.368e-08
-4.83324e-09
-2.19855e-08
-4.72557e-09
-2.03237e-08
-4.61735e-09
-1.87007e-08
-4.50825e-09
-1.71219e-08
-4.39643e-09
-1.55927e-08
-4.2782e-09
-1.41181e-08
-4.1495e-09
-1.27023e-08
-4.00651e-09
-1.13491e-08
-3.84459e-09
-1.00626e-08
-3.65956e-09
-8.84527e-09
-3.44839e-09
-7.69894e-09
-3.20824e-09
-6.6252e-09
-2.93891e-09
-5.62549e-09
-2.64283e-09
-4.70234e-09
-2.32263e-09
-3.85962e-09
-1.98344e-09
-3.10085e-09
-1.63131e-09
-2.4297e-09
-1.27021e-09
-1.84971e-09
-9.04375e-10
-1.36257e-09
-5.36903e-10
-9.68455e-10
-1.69942e-10
-6.6585e-10
1.90992e-10
-4.50855e-10
5.37832e-10
-3.17615e-10
8.60896e-10
-2.57881e-10
1.14793e-09
-2.59312e-10
1.38247e-09
-3.04383e-10
1.54049e-09
-3.70879e-10
1.58703e-09
-4.30864e-10
1.4741e-09
-4.47437e-10
1.1401e-09
-3.72263e-10
4.98977e-10
-1.72358e-10
-4.12931e-10
-6.57248e-10
-7.22249e-10
2.26396e-09
-1.613e-09
2.08607e-09
-2.10947e-09
-2.13269e-10
-2.33952e-09
-1.90612e-09
-2.41257e-09
-2.87449e-09
-2.44333e-09
-3.31738e-09
-2.48879e-09
-3.39478e-09
-2.5966e-09
-3.20502e-09
-2.77637e-09
-2.82095e-09
-3.05516e-09
-2.28799e-09
-3.4242e-09
-1.65002e-09
-3.88567e-09
-9.32984e-10
-4.43472e-09
-1.63558e-10
-5.07307e-09
6.39437e-10
-5.80045e-09
1.44932e-09
-6.61176e-09
2.24751e-09
-7.50127e-09
3.01371e-09
-8.47903e-09
3.74402e-09
-9.53673e-09
4.41568e-09
-1.06821e-08
5.03222e-09
-1.19134e-08
5.58223e-09
-1.32283e-08
6.06813e-09
-1.46241e-08
6.48507e-09
-1.60981e-08
6.83943e-09
-1.76535e-08
7.13336e-09
-1.9276e-08
7.36407e-09
-2.09725e-08
7.54287e-09
-2.27278e-08
7.66903e-09
-2.45464e-08
7.74754e-09
-2.64202e-08
7.78736e-09
-2.83423e-08
7.78397e-09
-3.0312e-08
7.75428e-09
-3.23213e-08
7.69413e-09
-3.43655e-08
7.61317e-09
-3.64383e-08
7.5156e-09
-3.85324e-08
7.4044e-09
-4.06406e-08
7.28337e-09
-4.27574e-08
7.15401e-09
-4.48786e-08
7.01715e-09
-4.70003e-08
6.87277e-09
-4.91197e-08
6.71931e-09
-5.1235e-08
6.55969e-09
-5.33435e-08
6.39644e-09
-5.54411e-08
6.232e-09
-5.75252e-08
6.07331e-09
-5.95928e-08
5.92462e-09
-6.16377e-08
5.79043e-09
-6.36544e-08
5.67335e-09
-6.56358e-08
5.57418e-09
-6.75756e-08
5.49466e-09
-6.94682e-08
5.42998e-09
-7.13081e-08
5.37531e-09
-7.3094e-08
5.32639e-09
-7.4824e-08
5.27531e-09
-7.64972e-08
5.21729e-09
-7.81151e-08
5.14789e-09
-7.96776e-08
5.06351e-09
-8.1185e-08
4.96458e-09
-8.26378e-08
4.85048e-09
-8.40345e-08
4.7205e-09
-8.53738e-08
4.57577e-09
-8.66551e-08
4.41721e-09
-8.78777e-08
4.24507e-09
-8.90403e-08
4.0588e-09
-9.01416e-08
3.85947e-09
-9.11814e-08
3.64993e-09
-9.2159e-08
3.43135e-09
-9.30719e-08
3.2043e-09
-9.39182e-08
2.97002e-09
-9.46969e-08
2.72907e-09
-9.54077e-08
2.48251e-09
-9.60502e-08
2.23107e-09
-9.66235e-08
1.97385e-09
-9.71269e-08
1.71202e-09
-9.75621e-08
1.44898e-09
-9.79296e-08
1.18604e-09
-9.82264e-08
9.23733e-10
-9.84506e-08
6.64945e-10
-9.86033e-08
4.12285e-10
-9.86832e-08
1.65498e-10
-9.8687e-08
-7.62736e-11
-9.86144e-08
-3.12767e-10
-9.84675e-08
-5.43929e-10
-9.82461e-08
-7.70574e-10
-9.7949e-08
-9.92943e-10
-9.75762e-08
-1.20989e-09
-9.71286e-08
-1.42036e-09
-9.66053e-08
-1.62502e-09
-9.60042e-08
-1.82552e-09
-9.5325e-08
-2.02276e-09
-9.45687e-08
-2.21749e-09
-9.37361e-08
-2.41243e-09
-9.28271e-08
-2.61175e-09
-9.18428e-08
-2.81812e-09
-9.07864e-08
-3.03193e-09
-8.96616e-08
-3.25365e-09
-8.84704e-08
-3.48454e-09
-8.72138e-08
-3.72425e-09
-8.58944e-08
-3.9699e-09
-8.45154e-08
-4.21845e-09
-8.30782e-08
-4.46833e-09
-8.15827e-08
-4.7183e-09
-8.00302e-08
-4.96628e-09
-7.84235e-08
-5.21039e-09
-7.67655e-08
-5.44992e-09
-7.50575e-08
-5.68424e-09
-7.33015e-08
-5.91158e-09
-7.15009e-08
-6.12948e-09
-6.96589e-08
-6.33599e-09
-6.7777e-08
-6.52964e-09
-6.58566e-08
-6.70866e-09
-6.39004e-08
-6.87098e-09
-6.19118e-08
-7.01513e-09
-5.98937e-08
-7.14081e-09
-5.78484e-08
-7.2484e-09
-5.57794e-08
-7.33801e-09
-5.3691e-08
-7.40903e-09
-5.1588e-08
-7.46067e-09
-4.9474e-08
-7.4924e-09
-4.73523e-08
-7.50369e-09
-4.52259e-08
-7.49372e-09
-4.30985e-08
-7.46217e-09
-4.09728e-08
-7.40961e-09
-3.88518e-08
-7.33727e-09
-3.67387e-08
-7.24704e-09
-3.46379e-08
-7.14127e-09
-3.25546e-08
-7.02247e-09
-3.04945e-08
-6.89338e-09
-2.84637e-08
-6.75636e-09
-2.64689e-08
-6.6121e-09
-2.45175e-08
-6.4597e-09
-2.26162e-08
-6.29771e-09
-2.0771e-08
-6.12341e-09
-1.89873e-08
-5.93316e-09
-1.72702e-08
-5.72365e-09
-1.56239e-08
-5.49088e-09
-1.40524e-08
-5.23104e-09
-1.25585e-08
-4.94227e-09
-1.1144e-08
-4.62278e-09
-9.81088e-09
-4.27203e-09
-8.56121e-09
-3.8925e-09
-7.39727e-09
-3.48657e-09
-6.32256e-09
-3.05814e-09
-5.34067e-09
-2.6132e-09
-4.45506e-09
-2.15582e-09
-3.66907e-09
-1.69037e-09
-2.98419e-09
-1.22178e-09
-2.4001e-09
-7.54037e-10
-1.91546e-09
-2.93652e-10
-1.5272e-09
1.4957e-10
-1.2297e-09
5.63398e-10
-1.01447e-09
9.32707e-10
-8.68976e-10
1.23697e-09
-7.76286e-10
1.4478e-09
-7.16071e-10
1.52681e-09
-6.63159e-10
1.4212e-09
-5.83124e-10
1.06007e-09
-4.321e-10
3.4795e-10
-1.86247e-10
-6.58785e-10
-8.43495e-10
-7.54474e-10
3.01843e-09
-1.7159e-09
3.0475e-09
-2.3218e-09
3.92623e-10
-2.66576e-09
-1.56215e-09
-2.88605e-09
-2.6542e-09
-3.07707e-09
-3.12636e-09
-3.29484e-09
-3.177e-09
-3.57897e-09
-2.92089e-09
-3.94691e-09
-2.45301e-09
-4.41114e-09
-1.82376e-09
-4.97248e-09
-1.08868e-09
-5.63784e-09
-2.67627e-10
-6.39499e-09
5.93598e-10
-7.24133e-09
1.48578e-09
-8.17406e-09
2.38206e-09
-9.19085e-09
3.26429e-09
-1.02984e-08
4.12122e-09
-1.1487e-08
4.93264e-09
-1.2765e-08
5.6937e-09
-1.4128e-08
6.39522e-09
-1.55765e-08
7.03069e-09
-1.71096e-08
7.60125e-09
-1.87324e-08
8.10784e-09
-2.04368e-08
8.54387e-09
-2.22229e-08
8.91948e-09
-2.40866e-08
9.22776e-09
-2.60277e-08
9.48395e-09
-2.80375e-08
9.67884e-09
-3.01179e-08
9.82795e-09
-3.22572e-08
9.92662e-09
-3.44581e-08
9.98493e-09
-3.67094e-08
1.00055e-08
-3.90092e-08
9.9939e-09
-4.13505e-08
9.95453e-09
-4.37267e-08
9.89183e-09
-4.61322e-08
9.80988e-09
-4.85593e-08
9.71041e-09
-5.10015e-08
9.59628e-09
-5.34529e-08
9.46847e-09
-5.59084e-08
9.3283e-09
-5.83656e-08
9.17652e-09
-6.08208e-08
9.0149e-09
-6.32705e-08
8.84615e-09
-6.57107e-08
8.67222e-09
-6.81368e-08
8.49939e-09
-7.05434e-08
8.33121e-09
-7.2923e-08
8.16998e-09
-7.52701e-08
8.02054e-09
-7.75786e-08
7.8826e-09
-7.98399e-08
7.756e-09
-8.20485e-08
7.63863e-09
-8.41991e-08
7.52582e-09
-8.62879e-08
7.41522e-09
-8.83136e-08
7.30101e-09
-9.02733e-08
7.17704e-09
-9.21671e-08
7.0417e-09
-9.39966e-08
6.89299e-09
-9.57604e-08
6.72832e-09
-9.74569e-08
6.54705e-09
-9.90866e-08
6.35015e-09
-1.00649e-07
6.13817e-09
-1.02142e-07
5.91065e-09
-1.03565e-07
5.66785e-09
-1.04917e-07
5.41062e-09
-1.06198e-07
5.14013e-09
-1.07406e-07
4.85817e-09
-1.0854e-07
4.56553e-09
-1.09598e-07
4.26263e-09
-1.1058e-07
3.95139e-09
-1.11484e-07
3.63327e-09
-1.12309e-07
3.3079e-09
-1.13054e-07
2.97575e-09
-1.13719e-07
2.63894e-09
-1.14306e-07
2.29853e-09
-1.14811e-07
1.95444e-09
-1.15234e-07
1.60887e-09
-1.15576e-07
1.26534e-09
-1.15835e-07
9.24718e-10
-1.1601e-07
5.86509e-10
-1.16097e-07
2.52557e-10
-1.16098e-07
-7.51851e-11
-1.16012e-07
-3.98192e-10
-1.15838e-07
-7.18426e-10
-1.15574e-07
-1.03447e-09
-1.15223e-07
-1.34404e-09
-1.14785e-07
-1.64788e-09
-1.14257e-07
-1.94795e-09
-1.13638e-07
-2.2438e-09
-1.1293e-07
-2.53391e-09
-1.12133e-07
-2.81956e-09
-1.11246e-07
-3.10422e-09
-1.10269e-07
-3.38994e-09
-1.09204e-07
-3.67722e-09
-1.08054e-07
-3.96772e-09
-1.06822e-07
-4.2641e-09
-1.05508e-07
-4.5673e-09
-1.04117e-07
-4.87605e-09
-1.02652e-07
-5.18899e-09
-1.01116e-07
-5.50551e-09
-9.95104e-08
-5.82423e-09
-9.78365e-08
-6.14227e-09
-9.60979e-08
-6.45691e-09
-9.4297e-08
-6.76713e-09
-9.24349e-08
-7.07254e-09
-9.05132e-08
-7.37158e-09
-8.85358e-08
-7.66167e-09
-8.65065e-08
-7.94092e-09
-8.44275e-08
-8.20847e-09
-8.23005e-08
-8.46297e-09
-8.01282e-08
-8.70194e-09
-7.79141e-08
-8.9228e-09
-7.5661e-08
-9.12404e-09
-7.33711e-08
-9.30498e-09
-7.10471e-08
-9.46486e-09
-6.86927e-08
-9.60282e-09
-6.63122e-08
-9.71848e-09
-6.39095e-08
-9.8117e-09
-6.14883e-08
-9.8819e-09
-5.90525e-08
-9.92821e-09
-5.66063e-08
-9.9499e-09
-5.41535e-08
-9.9465e-09
-5.16976e-08
-9.9181e-09
-4.92419e-08
-9.86529e-09
-4.67903e-08
-9.78886e-09
-4.43473e-08
-9.69009e-09
-4.19176e-08
-9.57092e-09
-3.95068e-08
-9.4333e-09
-3.71212e-08
-9.27891e-09
-3.47682e-08
-9.10938e-09
-3.24549e-08
-8.92542e-09
-3.01885e-08
-8.72613e-09
-2.79762e-08
-8.51001e-09
-2.58247e-08
-8.27484e-09
-2.37404e-08
-8.01745e-09
-2.17289e-08
-7.73522e-09
-1.97944e-08
-7.42536e-09
-1.7941e-08
-7.08442e-09
-1.61725e-08
-6.71081e-09
-1.44914e-08
-6.30384e-09
-1.29003e-08
-5.86311e-09
-1.14018e-08
-5.39104e-09
-9.99807e-09
-4.89029e-09
-8.69262e-09
-4.3636e-09
-7.4894e-09
-3.81641e-09
-6.39154e-09
-3.25367e-09
-5.40191e-09
-2.68e-09
-4.52211e-09
-2.10158e-09
-3.75177e-09
-1.52437e-09
-3.08946e-09
-9.55966e-10
-2.53223e-09
-4.0766e-10
-2.07465e-09
1.05822e-10
-1.70834e-09
5.66395e-10
-1.42175e-09
9.50389e-10
-1.19954e-09
1.22558e-09
-1.02227e-09
1.34954e-09
-8.65868e-10
1.26479e-09
-6.98846e-10
8.93049e-10
-4.82449e-10
1.31552e-10
-1.9775e-10
-9.43486e-10
-1.04125e-09
-7.58743e-10
3.77718e-09
-1.74175e-09
4.0305e-09
-2.40867e-09
1.05955e-09
-2.84075e-09
-1.13008e-09
-3.18416e-09
-2.31079e-09
-3.50529e-09
-2.80523e-09
-3.87007e-09
-2.81223e-09
-4.31197e-09
-2.479e-09
-4.84958e-09
-1.9154e-09
-5.48926e-09
-1.18408e-09
-6.23937e-09
-3.38565e-10
-7.08401e-09
5.77008e-10
-8.03884e-09
1.54842e-09
-9.08659e-09
2.53353e-09
-1.02323e-08
3.52774e-09
-1.14686e-08
4.50058e-09
-1.27952e-08
5.44782e-09
-1.42108e-08
6.34828e-09
-1.57178e-08
7.20067e-09
-1.73122e-08
7.98969e-09
-1.90012e-08
8.71963e-09
-2.07806e-08
9.38065e-09
-2.2644e-08
9.9713e-09
-2.46e-08
1.04998e-08
-2.66366e-08
1.0956e-08
-2.87619e-08
1.13531e-08
-3.09615e-08
1.16836e-08
-3.32398e-08
1.19571e-08
-3.55902e-08
1.21783e-08
-3.80075e-08
1.23439e-08
-4.04904e-08
1.24678e-08
-4.30285e-08
1.25436e-08
-4.56193e-08
1.25847e-08
-4.82557e-08
1.25909e-08
-5.09306e-08
1.25667e-08
-5.36381e-08
1.25173e-08
-5.63713e-08
1.24436e-08
-5.91242e-08
1.23492e-08
-6.18904e-08
1.22347e-08
-6.46634e-08
1.21014e-08
-6.74395e-08
1.19526e-08
-7.02134e-08
1.17888e-08
-7.2981e-08
1.16137e-08
-7.57384e-08
1.14297e-08
-7.84793e-08
1.12402e-08
-8.11977e-08
1.10496e-08
-8.38866e-08
1.08589e-08
-8.65387e-08
1.06726e-08
-8.91478e-08
1.04917e-08
-9.17053e-08