/*--------------------------------*- C++ -*----------------------------------*\
  =========                 |
  \\      /  F ield         | OpenFOAM: The Open Source CFD Toolbox
   \\    /   O peration     | Website:  https://openfoam.org
    \\  /    A nd           | Version:  7
     \\/     M anipulation  |
\*---------------------------------------------------------------------------*/
FoamFile
{
    version     2.0;
    format      ascii;
    class       volVectorField;
    location    "0.025";
    object      U;
}
// * * * * * * * * * * * * * * * * * * * * * * * * * * * * * * * * * * * * * //

dimensions      [0 1 -1 0 0 0 0];

internalField   nonuniform List<vector> 
25600
(
(5.02852e-06 -9.85366e-07 0)
(1.38817e-05 -1.91953e-05 0)
(6.91329e-05 -4.91912e-05 0)
(0.000156324 -6.75458e-05 0)
(0.000273206 -8.05563e-05 0)
(0.000404194 -9.02516e-05 0)
(0.00054296 -9.54526e-05 0)
(0.000685859 -9.6556e-05 0)
(0.000827634 -9.53462e-05 0)
(0.000960301 -8.82862e-05 0)
(0.00108012 -7.87671e-05 0)
(0.00118407 -6.64568e-05 0)
(0.00126451 -5.1296e-05 0)
(0.00132173 -3.49398e-05 0)
(0.00135311 -1.74957e-05 0)
(0.00135802 -3.38419e-07 0)
(0.00133971 1.54324e-05 0)
(0.00129817 2.91806e-05 0)
(0.00123744 4.10006e-05 0)
(0.0011612 5.05632e-05 0)
(0.00107147 5.8776e-05 0)
(0.00097142 6.45826e-05 0)
(0.000864976 6.87614e-05 0)
(0.000753357 6.98489e-05 0)
(0.000639848 6.9923e-05 0)
(0.000527417 6.89819e-05 0)
(0.000414774 6.69694e-05 0)
(0.000306618 6.3653e-05 0)
(0.000203333 6.02911e-05 0)
(0.000105414 5.5119e-05 0)
(1.49278e-05 4.94728e-05 0)
(-6.74787e-05 4.36064e-05 0)
(-0.000141425 3.66091e-05 0)
(-0.000206882 2.92619e-05 0)
(-0.000262019 2.30515e-05 0)
(-0.000310396 1.69957e-05 0)
(-0.000350984 1.06554e-05 0)
(-0.00038386 5.64757e-06 0)
(-0.000411261 1.52359e-06 0)
(-0.00043356 -2.07051e-06 0)
(-0.000449836 -4.72577e-06 0)
(-0.000460366 -7.04737e-06 0)
(-0.000465507 -1.07386e-05 0)
(-0.00046369 -1.57996e-05 0)
(-0.000455143 -2.05377e-05 0)
(-0.000441205 -2.43629e-05 0)
(-0.000423022 -2.64922e-05 0)
(-0.000402337 -2.62799e-05 0)
(-0.000381145 -2.43017e-05 0)
(-0.000362142 -2.15474e-05 0)
(-0.000347003 -1.85275e-05 0)
(-0.000337124 -1.45966e-05 0)
(-0.000333962 -9.83535e-06 0)
(-0.00033774 -5.00062e-06 0)
(-0.000347907 -6.09582e-07 0)
(-0.000363078 2.99482e-06 0)
(-0.000382281 5.92515e-06 0)
(-0.000404525 7.89542e-06 0)
(-0.000428537 9.01757e-06 0)
(-0.000453946 1.00847e-05 0)
(-0.000480434 1.11124e-05 0)
(-0.000507647 1.17947e-05 0)
(-0.000535232 1.20762e-05 0)
(-0.00056247 1.2012e-05 0)
(-0.000588758 1.16554e-05 0)
(-0.000613648 1.09339e-05 0)
(-0.00063699 1.00641e-05 0)
(-0.000658644 9.26314e-06 0)
(-0.000678465 8.53384e-06 0)
(-0.000696965 8.04948e-06 0)
(-0.000714206 7.55769e-06 0)
(-0.000729584 6.64698e-06 0)
(-0.000743021 5.55543e-06 0)
(-0.000754054 4.26582e-06 0)
(-0.000761869 2.56731e-06 0)
(-0.000766636 9.4744e-07 0)
(-0.00076851 -3.29605e-07 0)
(-0.000767513 -1.38529e-06 0)
(-0.000764679 -1.91461e-06 0)
(-0.000760783 -2.0062e-06 0)
(-0.000755871 -2.19033e-06 0)
(-0.000750606 -2.20926e-06 0)
(-0.000745395 -1.76851e-06 0)
(-0.000739693 -1.39208e-06 0)
(-0.00073362 -1.23962e-06 0)
(-0.000727757 -9.14532e-07 0)
(-0.00072187 -4.34661e-07 0)
(-0.000716141 2.1166e-07 0)
(-0.000711819 1.41545e-06 0)
(-0.000709494 3.04973e-06 0)
(-0.000708946 4.63412e-06 0)
(-0.000710497 6.21952e-06 0)
(-0.000714397 7.86404e-06 0)
(-0.000719843 9.09713e-06 0)
(-0.000725924 9.6996e-06 0)
(-0.000732169 9.91079e-06 0)
(-0.000737646 9.68444e-06 0)
(-0.000741057 8.83267e-06 0)
(-0.0007418 7.60775e-06 0)
(-0.000739774 6.27576e-06 0)
(-0.000734587 4.72213e-06 0)
(-0.000725904 3.0067e-06 0)
(-0.000713998 1.4885e-06 0)
(-0.000699176 1.20192e-07 0)
(-0.000681188 -1.53058e-06 0)
(-0.000659645 -3.49506e-06 0)
(-0.000634485 -5.42664e-06 0)
(-0.000605717 -7.27448e-06 0)
(-0.00057325 -9.19418e-06 0)
(-0.000537246 -1.1014e-05 0)
(-0.000498294 -1.24432e-05 0)
(-0.000457035 -1.35445e-05 0)
(-0.000413927 -1.44762e-05 0)
(-0.000369407 -1.51134e-05 0)
(-0.000323979 -1.5397e-05 0)
(-0.000277972 -1.56946e-05 0)
(-0.000231412 -1.63386e-05 0)
(-0.000184226 -1.70942e-05 0)
(-0.000136501 -1.75105e-05 0)
(-8.85034e-05 -1.75224e-05 0)
(-4.06681e-05 -1.72814e-05 0)
(6.34503e-06 -1.66972e-05 0)
(5.17538e-05 -1.56086e-05 0)
(9.48699e-05 -1.41494e-05 0)
(0.000135131 -1.25714e-05 0)
(0.000172107 -1.0918e-05 0)
(0.00020567 -9.14078e-06 0)
(0.000236078 -7.4601e-06 0)
(0.000263962 -6.41529e-06 0)
(0.000290264 -6.37218e-06 0)
(0.000316004 -7.04337e-06 0)
(0.000341954 -7.84363e-06 0)
(0.000368655 -8.63658e-06 0)
(0.000396451 -9.62592e-06 0)
(0.000425305 -1.07381e-05 0)
(0.000454862 -1.16359e-05 0)
(0.000484587 -1.19435e-05 0)
(0.000513513 -1.13318e-05 0)
(0.000540362 -9.77935e-06 0)
(0.000563771 -7.32046e-06 0)
(0.000582064 -3.85631e-06 0)
(0.000593833 2.06569e-07 0)
(0.000598524 4.34865e-06 0)
(0.000595919 8.52942e-06 0)
(0.000586329 1.25421e-05 0)
(0.000570356 1.63279e-05 0)
(0.000547919 2.00813e-05 0)
(0.000519093 2.35812e-05 0)
(0.0004842 2.69955e-05 0)
(0.000443146 3.05816e-05 0)
(0.000396297 3.39339e-05 0)
(0.000344063 3.67956e-05 0)
(0.000286664 3.90344e-05 0)
(0.000225125 4.05155e-05 0)
(0.000161364 4.08742e-05 0)
(9.85606e-05 3.90108e-05 0)
(4.17564e-05 3.30816e-05 0)
(-8.68027e-07 2.12157e-05 0)
(-1.63654e-05 3.70109e-06 0)
(-9.68031e-06 -6.62923e-06 0)
(-1.20803e-05 -8.99862e-06 0)
(-5.24671e-06 -4.65265e-05 0)
(4.59252e-05 -0.000123553 0)
(0.000157959 -0.00017919 0)
(0.000310777 -0.000212548 0)
(0.000487423 -0.000234038 0)
(0.000677745 -0.00024515 0)
(0.000866118 -0.000246889 0)
(0.00104947 -0.000236741 0)
(0.00122301 -0.000219487 0)
(0.00137451 -0.000192633 0)
(0.0015003 -0.000157681 0)
(0.0015977 -0.000118485 0)
(0.0016625 -7.4123e-05 0)
(0.0016934 -3.08659e-05 0)
(0.00168996 1.31786e-05 0)
(0.00165226 5.44926e-05 0)
(0.00158609 9.0574e-05 0)
(0.0014926 0.000122402 0)
(0.00137334 0.000147549 0)
(0.00123381 0.000168126 0)
(0.00107893 0.000184309 0)
(0.000911337 0.000194383 0)
(0.000735226 0.0002009 0)
(0.000552859 0.000202553 0)
(0.000365378 0.000202045 0)
(0.000178904 0.000196844 0)
(-5.91024e-06 0.000192196 0)
(-0.000188035 0.000181037 0)
(-0.000363905 0.000171588 0)
(-0.000531554 0.000158147 0)
(-0.000691355 0.000144742 0)
(-0.000841382 0.000128988 0)
(-0.000981158 0.000114305 0)
(-0.00111203 9.946e-05 0)
(-0.00123253 8.56849e-05 0)
(-0.00134346 7.32706e-05 0)
(-0.00144658 6.19759e-05 0)
(-0.00154126 5.12307e-05 0)
(-0.00162769 4.09843e-05 0)
(-0.00170681 3.14889e-05 0)
(-0.00177761 2.15689e-05 0)
(-0.0018397 1.11967e-05 0)
(-0.00189314 3.12637e-07 0)
(-0.00193805 -1.02508e-05 0)
(-0.00197575 -1.94317e-05 0)
(-0.00200816 -2.60725e-05 0)
(-0.00203748 -2.8293e-05 0)
(-0.00206535 -2.65433e-05 0)
(-0.00209395 -2.15208e-05 0)
(-0.00212566 -1.3764e-05 0)
(-0.0021619 -3.9593e-06 0)
(-0.00220372 7.13716e-06 0)
(-0.00225147 1.77988e-05 0)
(-0.00230531 2.74814e-05 0)
(-0.00236427 3.55678e-05 0)
(-0.00242675 4.14148e-05 0)
(-0.00249222 4.55025e-05 0)
(-0.00255975 4.82037e-05 0)
(-0.00262795 5.02e-05 0)
(-0.00269617 5.17115e-05 0)
(-0.00276396 5.23187e-05 0)
(-0.00283082 5.20509e-05 0)
(-0.00289581 5.08194e-05 0)
(-0.0029582 4.86695e-05 0)
(-0.00301789 4.58321e-05 0)
(-0.00307423 4.24604e-05 0)
(-0.00312672 3.92422e-05 0)
(-0.00317552 3.64319e-05 0)
(-0.00322018 3.35231e-05 0)
(-0.00326069 3.04032e-05 0)
(-0.00329752 2.68927e-05 0)
(-0.00332964 2.26239e-05 0)
(-0.00335632 1.77291e-05 0)
(-0.0033782 1.22863e-05 0)
(-0.00339495 6.5112e-06 0)
(-0.00340622 1.34238e-06 0)
(-0.00341298 -2.66802e-06 0)
(-0.0034155 -5.73326e-06 0)
(-0.00341396 -7.86263e-06 0)
(-0.00340955 -9.0789e-06 0)
(-0.00340231 -9.90585e-06 0)
(-0.003392 -1.06792e-05 0)
(-0.00338012 -1.12864e-05 0)
(-0.00336708 -1.17276e-05 0)
(-0.00335166 -1.20209e-05 0)
(-0.00333472 -1.17238e-05 0)
(-0.00331778 -1.03142e-05 0)
(-0.00329995 -7.90936e-06 0)
(-0.00328118 -5.03071e-06 0)
(-0.00326371 -1.89067e-06 0)
(-0.00324752 1.42203e-06 0)
(-0.00323043 4.3261e-06 0)
(-0.00321256 6.07098e-06 0)
(-0.00319473 6.40455e-06 0)
(-0.00317488 5.33631e-06 0)
(-0.00315088 2.74211e-06 0)
(-0.00312324 -1.27282e-06 0)
(-0.00309183 -6.20306e-06 0)
(-0.0030546 -1.16756e-05 0)
(-0.0030111 -1.75596e-05 0)
(-0.00296259 -2.35195e-05 0)
(-0.00290869 -2.92054e-05 0)
(-0.00284793 -3.48322e-05 0)
(-0.0027809 -4.08753e-05 0)
(-0.00270891 -4.73368e-05 0)
(-0.00263111 -5.38774e-05 0)
(-0.00254624 -6.0355e-05 0)
(-0.00245532 -6.66682e-05 0)
(-0.00235999 -7.24188e-05 0)
(-0.00226003 -7.72482e-05 0)
(-0.00215493 -8.11942e-05 0)
(-0.00204606 -8.43473e-05 0)
(-0.00193501 -8.65781e-05 0)
(-0.0018216 -8.79728e-05 0)
(-0.00170532 -8.9097e-05 0)
(-0.00158732 -9.04008e-05 0)
(-0.00146905 -9.16586e-05 0)
(-0.0013504 -9.23257e-05 0)
(-0.00123072 -9.21724e-05 0)
(-0.00111103 -9.11931e-05 0)
(-0.000993441 -8.91449e-05 0)
(-0.000878898 -8.57092e-05 0)
(-0.000767197 -8.10356e-05 0)
(-0.000658751 -7.56674e-05 0)
(-0.000554835 -7.00307e-05 0)
(-0.000455927 -6.44027e-05 0)
(-0.000361159 -5.92895e-05 0)
(-0.000269637 -5.54623e-05 0)
(-0.000181248 -5.34553e-05 0)
(-9.58183e-05 -5.30806e-05 0)
(-1.22967e-05 -5.36262e-05 0)
(7.05581e-05 -5.45705e-05 0)
(0.000152838 -5.57893e-05 0)
(0.000233453 -5.69948e-05 0)
(0.000311501 -5.74897e-05 0)
(0.000386803 -5.65378e-05 0)
(0.000458785 -5.35293e-05 0)
(0.000525797 -4.80769e-05 0)
(0.00058568 -4.01789e-05 0)
(0.000636496 -3.0001e-05 0)
(0.000677074 -1.80384e-05 0)
(0.000706824 -5.31828e-06 0)
(0.000725077 7.42308e-06 0)
(0.0007315 1.98197e-05 0)
(0.000726297 3.1514e-05 0)
(0.000709476 4.28478e-05 0)
(0.000681158 5.42124e-05 0)
(0.000641688 6.54279e-05 0)
(0.00059126 7.64753e-05 0)
(0.00053049 8.68316e-05 0)
(0.00046016 9.58389e-05 0)
(0.000381247 0.000103427 0)
(0.000296093 0.000108867 0)
(0.000208428 0.000110205 0)
(0.000123401 0.000104021 0)
(4.80668e-05 8.62265e-05 0)
(-6.71333e-06 5.21361e-05 0)
(-2.56462e-05 2.86996e-06 0)
(-1.38294e-05 -2.03696e-05 0)
(-4.56677e-05 2.29198e-05 0)
(-8.47315e-05 -4.54432e-05 0)
(-9.00279e-05 -0.000187117 0)
(-3.11859e-05 -0.000289498 0)
(7.1831e-05 -0.000356249 0)
(0.000190312 -0.000392763 0)
(0.000315056 -0.000407435 0)
(0.000441651 -0.000405661 0)
(0.000558805 -0.000385629 0)
(0.000660322 -0.000351529 0)
(0.000747655 -0.000303997 0)
(0.00081326 -0.000245747 0)
(0.000856319 -0.000177324 0)
(0.0008762 -0.00010627 0)
(0.000872136 -3.08567e-05 0)
(0.000845139 4.10435e-05 0)
(0.000793092 0.000109108 0)
(0.000718583 0.000173214 0)
(0.000622702 0.000226467 0)
(0.00050709 0.000274162 0)
(0.000374609 0.000312187 0)
(0.000225176 0.000342865 0)
(6.39121e-05 0.000365253 0)
(-0.00010833 0.000381413 0)
(-0.000289498 0.000389646 0)
(-0.000477319 0.000392773 0)
(-0.000669457 0.000391526 0)
(-0.000866362 0.000382917 0)
(-0.00106369 0.000372893 0)
(-0.0012594 0.000357525 0)
(-0.00145623 0.000339547 0)
(-0.0016492 0.000319635 0)
(-0.00183897 0.000298177 0)
(-0.00202567 0.00027536 0)
(-0.00220818 0.000253671 0)
(-0.00238598 0.000233307 0)
(-0.0025599 0.000213723 0)
(-0.00272814 0.000195726 0)
(-0.00289046 0.000178714 0)
(-0.00304773 0.000161012 0)
(-0.00319916 0.000143165 0)
(-0.00334489 0.000125412 0)
(-0.00348567 0.00010734 0)
(-0.00362115 8.98026e-05 0)
(-0.00375104 7.36445e-05 0)
(-0.00387638 5.98196e-05 0)
(-0.0039981 4.93824e-05 0)
(-0.00411659 4.38051e-05 0)
(-0.00423284 4.38162e-05 0)
(-0.00434765 4.87567e-05 0)
(-0.00446115 5.80636e-05 0)
(-0.00457349 7.05042e-05 0)
(-0.00468543 8.45661e-05 0)
(-0.00479742 9.84733e-05 0)
(-0.00490917 0.000110675 0)
(-0.0050209 0.000120839 0)
(-0.00513245 0.000128304 0)
(-0.00524341 0.000133015 0)
(-0.00535345 0.000135907 0)
(-0.00546156 0.000137423 0)
(-0.00556713 0.000137665 0)
(-0.00566988 0.000136428 0)
(-0.00576933 0.000133714 0)
(-0.00586498 0.000129679 0)
(-0.00595626 0.000124028 0)
(-0.00604349 0.000117185 0)
(-0.00612647 0.000109881 0)
(-0.00620374 0.000102201 0)
(-0.00627547 9.45848e-05 0)
(-0.006342 8.70537e-05 0)
(-0.00640221 7.88075e-05 0)
(-0.0064564 6.99247e-05 0)
(-0.00650483 6.05139e-05 0)
(-0.00654643 4.99781e-05 0)
(-0.006582 3.87592e-05 0)
(-0.00661214 2.77029e-05 0)
(-0.00663565 1.69546e-05 0)
(-0.00665316 7.29975e-06 0)
(-0.00666558 -4.81514e-07 0)
(-0.00667152 -7.04138e-06 0)
(-0.00667126 -1.28029e-05 0)
(-0.00666636 -1.74163e-05 0)
(-0.006656 -2.14545e-05 0)
(-0.00664 -2.56458e-05 0)
(-0.00662043 -2.9485e-05 0)
(-0.00659721 -3.24737e-05 0)
(-0.00656883 -3.46446e-05 0)
(-0.00653616 -3.55633e-05 0)
(-0.00650028 -3.50001e-05 0)
(-0.0064603 -3.37374e-05 0)
(-0.00641615 -3.23422e-05 0)
(-0.00636874 -3.08063e-05 0)
(-0.00631744 -2.98405e-05 0)
(-0.00626126 -3.06136e-05 0)
(-0.00620069 -3.34385e-05 0)
(-0.00613582 -3.82048e-05 0)
(-0.00606549 -4.51939e-05 0)
(-0.00598932 -5.43448e-05 0)
(-0.00590779 -6.48518e-05 0)
(-0.00582051 -7.614e-05 0)
(-0.00572667 -8.81231e-05 0)
(-0.00562634 -0.000100395 0)
(-0.00551973 -0.000112385 0)
(-0.00540642 -0.000124248 0)
(-0.00528636 -0.000136571 0)
(-0.00516018 -0.000149351 0)
(-0.00502805 -0.000162077 0)
(-0.00488969 -0.000174471 0)
(-0.0047455 -0.000186407 0)
(-0.00459635 -0.000197445 0)
(-0.00444252 -0.000207087 0)
(-0.00428385 -0.000215247 0)
(-0.00412084 -0.000222039 0)
(-0.00395436 -0.000227426 0)
(-0.00378477 -0.000231475 0)
(-0.00361228 -0.000234617 0)
(-0.00343773 -0.000237264 0)
(-0.00326218 -0.00023933 0)
(-0.00308599 -0.000240374 0)
(-0.00290921 -0.000240053 0)
(-0.00273262 -0.000238153 0)
(-0.00255748 -0.000234398 0)
(-0.00238447 -0.000228621 0)
(-0.00221351 -0.000221068 0)
(-0.00204472 -0.00021228 0)
(-0.00187874 -0.000202817 0)
(-0.00171602 -0.000193293 0)
(-0.00155658 -0.000184488 0)
(-0.00140054 -0.00017717 0)
(-0.00124832 -0.000171769 0)
(-0.0011002 -0.000168155 0)
(-0.000956042 -0.000165764 0)
(-0.000815664 -0.00016401 0)
(-0.000679438 -0.000162368 0)
(-0.000548334 -0.000160086 0)
(-0.000423083 -0.000156291 0)
(-0.00030392 -0.000150236 0)
(-0.000191383 -0.000141207 0)
(-8.64552e-05 -0.00012866 0)
(9.80438e-06 -0.000112401 0)
(9.63476e-05 -9.25761e-05 0)
(0.000172673 -6.99887e-05 0)
(0.000238522 -4.59038e-05 0)
(0.000293024 -2.12856e-05 0)
(0.000335429 3.17087e-06 0)
(0.000365268 2.71236e-05 0)
(0.000382042 5.08023e-05 0)
(0.000386067 7.43501e-05 0)
(0.000377929 9.75784e-05 0)
(0.000357847 0.000120078 0)
(0.000326232 0.000140999 0)
(0.000283805 0.000159415 0)
(0.000232113 0.000174516 0)
(0.000174051 0.000184641 0)
(0.000113493 0.000186331 0)
(5.4879e-05 0.000174453 0)
(3.92133e-06 0.000142762 0)
(-2.97916e-05 8.31591e-05 0)
(-3.36828e-05 -2.74623e-06 0)
(-1.52792e-05 -4.06062e-05 0)
(-6.53113e-05 9.11128e-05 0)
(-0.000143598 1.77099e-05 0)
(-0.000195142 -0.000191728 0)
(-0.000187156 -0.000344997 0)
(-0.000140046 -0.000438647 0)
(-7.15326e-05 -0.000487693 0)
(-8.7391e-07 -0.000505418 0)
(6.3109e-05 -0.000493691 0)
(0.000119062 -0.000464452 0)
(0.000163693 -0.000414357 0)
(0.000190871 -0.000350577 0)
(0.000202029 -0.000273062 0)
(0.000195575 -0.000186438 0)
(0.000172474 -9.40461e-05 0)
(0.000132771 -3.08463e-07 0)
(7.3324e-05 9.27331e-05 0)
(-4.85447e-07 0.000180948 0)
(-9.24983e-05 0.000261984 0)
(-0.000200345 0.000335374 0)
(-0.000324044 0.000398947 0)
(-0.000464967 0.000452666 0)
(-0.000618259 0.000496635 0)
(-0.000784704 0.000532868 0)
(-0.000962917 0.000557884 0)
(-0.00115201 0.000577653 0)
(-0.00134988 0.000586873 0)
(-0.00155689 0.000591698 0)
(-0.00176895 0.000588129 0)
(-0.00198659 0.00058161 0)
(-0.00221033 0.000567325 0)
(-0.00243481 0.000551511 0)
(-0.00266302 0.000531139 0)
(-0.00289377 0.000509006 0)
(-0.00312462 0.000485264 0)
(-0.00335617 0.000461373 0)
(-0.00358761 0.000437632 0)
(-0.00381783 0.000415079 0)
(-0.00404629 0.000393988 0)
(-0.00427269 0.000373127 0)
(-0.00449586 0.000351995 0)
(-0.00471505 0.000330397 0)
(-0.00493102 0.000307857 0)
(-0.00514402 0.000284982 0)
(-0.0053542 0.000263451 0)
(-0.00556166 0.00024379 0)
(-0.00576639 0.000226723 0)
(-0.0059682 0.000213579 0)
(-0.00616648 0.000205128 0)
(-0.00636134 0.000201728 0)
(-0.00655253 0.00020332 0)
(-0.0067396 0.000209715 0)
(-0.00692223 0.000219431 0)
(-0.00710011 0.0002304 0)
(-0.0072735 0.000241576 0)
(-0.00744235 0.000251495 0)
(-0.00760694 0.000259031 0)
(-0.0077678 0.000263938 0)
(-0.00792476 0.000266148 0)
(-0.00807766 0.000266188 0)
(-0.00822606 0.000264384 0)
(-0.00836957 0.000260704 0)
(-0.00850788 0.000255265 0)
(-0.00864042 0.00024798 0)
(-0.00876726 0.000238998 0)
(-0.00888831 0.000228434 0)
(-0.00900325 0.000216191 0)
(-0.00911206 0.000203048 0)
(-0.00921405 0.000189665 0)
(-0.00930879 0.000175722 0)
(-0.00939641 0.000161256 0)
(-0.00947637 0.000146317 0)
(-0.00954852 0.000130462 0)
(-0.00961309 0.00011388 0)
(-0.00966973 9.67674e-05 0)
(-0.00971893 7.88625e-05 0)
(-0.00976135 6.08629e-05 0)
(-0.00979625 4.37877e-05 0)
(-0.00982317 2.76384e-05 0)
(-0.00984262 1.25653e-05 0)
(-0.0098545 -8.77164e-07 0)
(-0.00985824 -1.30061e-05 0)
(-0.00985371 -2.43776e-05 0)
(-0.00984143 -3.49773e-05 0)
(-0.00982226 -4.50572e-05 0)
(-0.00979614 -5.48976e-05 0)
(-0.00976238 -6.38914e-05 0)
(-0.0097215 -7.1475e-05 0)
(-0.00967415 -7.79205e-05 0)
(-0.00961941 -8.34211e-05 0)
(-0.00955682 -8.79425e-05 0)
(-0.00948743 -9.20713e-05 0)
(-0.00941112 -9.66211e-05 0)
(-0.00932662 -0.000101939 0)
(-0.00923437 -0.000108524 0)
(-0.00913552 -0.000117288 0)
(-0.00902944 -0.000128564 0)
(-0.00891544 -0.000141908 0)
(-0.00879454 -0.000157065 0)
(-0.00866723 -0.00017403 0)
(-0.00853257 -0.000192271 0)
(-0.00839039 -0.000210915 0)
(-0.00824155 -0.000229617 0)
(-0.00808573 -0.000248497 0)
(-0.00792208 -0.000267495 0)
(-0.00775137 -0.000286407 0)
(-0.00757473 -0.000305273 0)
(-0.0073917 -0.00032412 0)
(-0.00720173 -0.000342547 0)
(-0.00700603 -0.000359958 0)
(-0.00680587 -0.000376012 0)
(-0.00660071 -0.000390542 0)
(-0.00638985 -0.000403306 0)
(-0.00617434 -0.000414114 0)
(-0.00595546 -0.000423061 0)
(-0.00573299 -0.000430401 0)
(-0.00550663 -0.000436306 0)
(-0.00527772 -0.000440837 0)
(-0.00504792 -0.000443986 0)
(-0.00481732 -0.00044557 0)
(-0.00458541 -0.000445238 0)
(-0.00435303 -0.000442709 0)
(-0.00412188 -0.000437894 0)
(-0.00389247 -0.000430811 0)
(-0.00366406 -0.000421589 0)
(-0.0034365 -0.000410589 0)
(-0.00321089 -0.000398487 0)
(-0.00298814 -0.00038616 0)
(-0.00276821 -0.000374363 0)
(-0.0025513 -0.000363491 0)
(-0.00233864 -0.000353749 0)
(-0.00213147 -0.000345262 0)
(-0.00193012 -0.000337781 0)
(-0.00173447 -0.00033059 0)
(-0.00154502 -0.000322824 0)
(-0.00136315 -0.000313623 0)
(-0.00118998 -0.000302245 0)
(-0.00102555 -0.000288134 0)
(-0.000869821 -0.000270549 0)
(-0.000723506 -0.000248783 0)
(-0.000587426 -0.000222786 0)
(-0.000462105 -0.000192863 0)
(-0.00034761 -0.00015965 0)
(-0.000243824 -0.000124279 0)
(-0.000151667 -8.76364e-05 0)
(-7.25419e-05 -5.04949e-05 0)
(-7.04001e-06 -1.35712e-05 0)
(4.46612e-05 2.31954e-05 0)
(8.28393e-05 5.99013e-05 0)
(0.000107979 9.6096e-05 0)
(0.000119993 0.000131016 0)
(0.000119093 0.000163442 0)
(0.000106468 0.000191994 0)
(8.41246e-05 0.000215146 0)
(5.47259e-05 0.000230376 0)
(2.15181e-05 0.000233128 0)
(-1.1317e-05 0.000217103 0)
(-3.86091e-05 0.000174793 0)
(-5.16635e-05 9.52861e-05 0)
(-4.0807e-05 -1.92627e-05 0)
(-1.63725e-05 -6.38321e-05 0)
(-7.68364e-05 0.000190181 0)
(-0.000177482 0.000123808 0)
(-0.000267806 -0.000147415 0)
(-0.000294872 -0.00035409 0)
(-0.000281858 -0.000469513 0)
(-0.000258246 -0.000530733 0)
(-0.000230352 -0.000545898 0)
(-0.000206819 -0.000529809 0)
(-0.000195676 -0.000486118 0)
(-0.000197835 -0.000422288 0)
(-0.000213038 -0.000343582 0)
(-0.000243401 -0.000251584 0)
(-0.000290319 -0.000150156 0)
(-0.000352207 -4.27179e-05 0)
(-0.000427705 6.62575e-05 0)
(-0.000515942 0.000173932 0)
(-0.000620879 0.000276877 0)
(-0.00073858 0.00037253 0)
(-0.000870517 0.000461028 0)
(-0.00101754 0.000536909 0)
(-0.00117743 0.000606025 0)
(-0.00135089 0.00066299 0)
(-0.00153859 0.000709788 0)
(-0.00173748 0.000748469 0)
(-0.00194875 0.00077597 0)
(-0.00217115 0.000796995 0)
(-0.0024021 0.000808267 0)
(-0.00264369 0.000814926 0)
(-0.00289319 0.000812485 0)
(-0.0031485 0.000806294 0)
(-0.0034112 0.00079503 0)
(-0.00368017 0.000778731 0)
(-0.00395293 0.000760535 0)
(-0.00423075 0.000739866 0)
(-0.00451172 0.000717679 0)
(-0.00479459 0.000695074 0)
(-0.00507881 0.000672268 0)
(-0.0053634 0.00064939 0)
(-0.0056478 0.00062685 0)
(-0.00593134 0.000604452 0)
(-0.00621341 0.000581254 0)
(-0.00649397 0.000557184 0)
(-0.00677227 0.000532646 0)
(-0.00704847 0.000508479 0)
(-0.00732309 0.000485775 0)
(-0.0075955 0.000465877 0)
(-0.00786509 0.000449938 0)
(-0.00813113 0.000438031 0)
(-0.00839306 0.000430534 0)
(-0.00864958 0.000427362 0)
(-0.00889979 0.000427973 0)
(-0.00914376 0.000431566 0)
(-0.00938065 0.00043633 0)
(-0.00961003 0.000441192 0)
(-0.00983229 0.000445265 0)
(-0.0100477 0.000447055 0)
(-0.0102564 0.000446246 0)
(-0.0104584 0.000442993 0)
(-0.0106538 0.000437419 0)
(-0.0108425 0.000429738 0)
(-0.011024 0.000419735 0)
(-0.0111981 0.000407757 0)
(-0.0113647 0.000394089 0)
(-0.0115234 0.000378228 0)
(-0.0116745 0.000360443 0)
(-0.011818 0.000341279 0)
(-0.0119532 0.000320813 0)
(-0.0120795 0.000299572 0)
(-0.0121974 0.000277725 0)
(-0.0123066 0.000254889 0)
(-0.0124063 0.000231386 0)
(-0.0124965 0.000207343 0)
(-0.0125774 0.000182259 0)
(-0.0126488 0.000156402 0)
(-0.0127115 0.00013035 0)
(-0.0127652 0.000104242 0)
(-0.0128092 7.86195e-05 0)
(-0.0128444 5.40776e-05 0)
(-0.0128705 3.05261e-05 0)
(-0.0128857 8.04672e-06 0)
(-0.0128908 -1.30478e-05 0)
(-0.0128867 -3.31385e-05 0)
(-0.0128721 -5.2685e-05 0)
(-0.0128474 -7.1499e-05 0)
(-0.0128139 -8.95074e-05 0)
(-0.0127708 -0.000106846 0)
(-0.0127171 -0.000123121 0)
(-0.012654 -0.000137997 0)
(-0.0125815 -0.000151987 0)
(-0.0124985 -0.000165604 0)
(-0.0124053 -0.000178788 0)
(-0.0123024 -0.000191889 0)
(-0.012189 -0.00020597 0)
(-0.0120653 -0.000221714 0)
(-0.0119324 -0.000239116 0)
(-0.0117904 -0.000258333 0)
(-0.0116385 -0.000279727 0)
(-0.0114779 -0.000303116 0)
(-0.0113095 -0.000327833 0)
(-0.0111325 -0.000353431 0)
(-0.0109467 -0.0003797 0)
(-0.010753 -0.000406249 0)
(-0.0105517 -0.000432649 0)
(-0.0103421 -0.000458831 0)
(-0.0101244 -0.000484908 0)
(-0.00989986 -0.000510752 0)
(-0.00966868 -0.000536008 0)
(-0.00943035 -0.00056036 0)
(-0.0091855 -0.000583526 0)
(-0.00893534 -0.000605147 0)
(-0.00867995 -0.000624857 0)
(-0.00841883 -0.000642411 0)
(-0.00815249 -0.000657681 0)
(-0.00788195 -0.000670651 0)
(-0.00760745 -0.000681473 0)
(-0.007329 -0.000690352 0)
(-0.00704754 -0.00069731 0)
(-0.00676426 -0.000702148 0)
(-0.00647948 -0.000704636 0)
(-0.00619326 -0.000704649 0)
(-0.00590643 -0.000702118 0)
(-0.00562013 -0.000696918 0)
(-0.00533469 -0.000688971 0)
(-0.00504975 -0.000678491 0)
(-0.00476554 -0.000665988 0)
(-0.00448304 -0.000652009 0)
(-0.00420302 -0.00063707 0)
(-0.0039257 -0.000621784 0)
(-0.00365176 -0.000606733 0)
(-0.0033828 -0.000592202 0)
(-0.00312017 -0.000578121 0)
(-0.00286429 -0.000564071 0)
(-0.00261538 -0.000549381 0)
(-0.00237434 -0.000533406 0)
(-0.0021426 -0.000515507 0)
(-0.00192131 -0.000494898 0)
(-0.00171052 -0.000470902 0)
(-0.00151008 -0.000442951 0)
(-0.00132068 -0.000410533 0)
(-0.00114303 -0.000373624 0)
(-0.000977329 -0.000332552 0)
(-0.00082365 -0.00028777 0)
(-0.000681959 -0.000240221 0)
(-0.000553088 -0.000190892 0)
(-0.000438503 -0.000140466 0)
(-0.000338687 -8.96296e-05 0)
(-0.00025362 -3.87109e-05 0)
(-0.000183193 1.21324e-05 0)
(-0.000127125 6.2153e-05 0)
(-8.54896e-05 0.000110242 0)
(-5.8026e-05 0.000155069 0)
(-4.34157e-05 0.000194814 0)
(-3.95343e-05 0.000227081 0)
(-4.40469e-05 0.000248378 0)
(-5.40792e-05 0.000253526 0)
(-6.52638e-05 0.00023548 0)
(-7.27605e-05 0.000185268 0)
(-6.91105e-05 8.96733e-05 0)
(-4.65026e-05 -4.74233e-05 0)
(-1.79238e-05 -9.04294e-05 0)
(-8.41729e-05 0.000302663 0)
(-0.000197801 0.000257828 0)
(-0.000310633 -7.81752e-05 0)
(-0.0003648 -0.000327455 0)
(-0.000382423 -0.000471472 0)
(-0.000387993 -0.000539417 0)
(-0.000391096 -0.000552432 0)
(-0.000404099 -0.000528627 0)
(-0.000425582 -0.000471986 0)
(-0.000462521 -0.000396379 0)
(-0.000515574 -0.000299467 0)
(-0.000581345 -0.00019347 0)
(-0.000662371 -7.79026e-05 0)
(-0.000757592 4.26606e-05 0)
(-0.000866166 0.000165419 0)
(-0.000990604 0.000285963 0)
(-0.00112626 0.000402436 0)
(-0.00127486 0.000512396 0)
(-0.0014387 0.000612677 0)
(-0.00161396 0.000705583 0)
(-0.00180379 0.000785521 0)
(-0.00200892 0.000856662 0)
(-0.00222417 0.000916773 0)
(-0.00245444 0.000967297 0)
(-0.00269716 0.00100693 0)
(-0.0029513 0.0010391 0)
(-0.00321749 0.001061 0)
(-0.00349348 0.00107613 0)
(-0.00378011 0.00108361 0)
(-0.00407519 0.00108545 0)
(-0.00437905 0.00107998 0)
(-0.0046904 0.00107172 0)
(-0.00500867 0.00105844 0)
(-0.00533339 0.00104232 0)
(-0.00566299 0.00102454 0)
(-0.00599667 0.00100502 0)
(-0.0063334 0.000984263 0)
(-0.00667159 0.00096229 0)
(-0.0070106 0.000939399 0)
(-0.00735027 0.000915855 0)
(-0.00768976 0.000891362 0)
(-0.00802872 0.00086636 0)
(-0.00836675 0.000841117 0)
(-0.00870341 0.000815691 0)
(-0.00903806 0.000791016 0)
(-0.00937 0.000768357 0)
(-0.00969925 0.000748847 0)
(-0.0100246 0.000732488 0)
(-0.0103448 0.000719702 0)
(-0.0106589 0.000710787 0)
(-0.0109655 0.000704455 0)
(-0.0112644 0.000700068 0)
(-0.0115547 0.000696902 0)
(-0.0118356 0.000693558 0)
(-0.0121077 0.000689251 0)
(-0.0123711 0.000682946 0)
(-0.0126256 0.000674289 0)
(-0.0128711 0.000663444 0)
(-0.013108 0.000649947 0)
(-0.0133362 0.000634035 0)
(-0.0135554 0.000616023 0)
(-0.0137648 0.000595654 0)
(-0.0139649 0.000573234 0)
(-0.0141559 0.000548798 0)
(-0.014337 0.000522139 0)
(-0.0145083 0.00049392 0)
(-0.01467 0.000464513 0)
(-0.014821 0.000433742 0)
(-0.0149618 0.000401925 0)
(-0.0150923 0.000369282 0)
(-0.0152112 0.0003357 0)
(-0.0153193 0.000301345 0)
(-0.0154168 0.000266282 0)
(-0.0155025 0.000230438 0)
(-0.0155773 0.000194169 0)
(-0.015642 0.000157968 0)
(-0.0156953 0.000122147 0)
(-0.0157369 8.70678e-05 0)
(-0.0157676 5.2948e-05 0)
(-0.0157863 1.97553e-05 0)
(-0.0157927 -1.24144e-05 0)
(-0.015787 -4.3531e-05 0)
(-0.0157692 -7.39849e-05 0)
(-0.0157397 -0.000103957 0)
(-0.0156987 -0.000133004 0)
(-0.0156452 -0.000160876 0)
(-0.0155791 -0.000187904 0)
(-0.0155015 -0.000214229 0)
(-0.0154122 -0.000239618 0)
(-0.0153096 -0.000264232 0)
(-0.0151945 -0.000288696 0)
(-0.0150676 -0.000313447 0)
(-0.0149283 -0.000338739 0)
(-0.0147764 -0.000365092 0)
(-0.014613 -0.000393077 0)
(-0.0144386 -0.000422807 0)
(-0.0142531 -0.000454061 0)
(-0.014057 -0.000486693 0)
(-0.0138511 -0.000520578 0)
(-0.0136353 -0.000555339 0)
(-0.0134098 -0.000590433 0)
(-0.0131751 -0.000625455 0)
(-0.0129314 -0.00066024 0)
(-0.0126784 -0.000694717 0)
(-0.0124169 -0.000728752 0)
(-0.0121478 -0.000762088 0)
(-0.0118709 -0.000794403 0)
(-0.0115858 -0.000825408 0)
(-0.0112938 -0.000854879 0)
(-0.0109963 -0.000882543 0)
(-0.0106926 -0.000908013 0)
(-0.0103821 -0.000930936 0)
(-0.010066 -0.000951169 0)
(-0.00974559 -0.000968748 0)
(-0.00942087 -0.000983715 0)
(-0.00909137 -0.000996031 0)
(-0.00875815 -0.00100563 0)
(-0.00842279 -0.00101251 0)
(-0.00808563 -0.00101662 0)
(-0.00774637 -0.00101777 0)
(-0.00740577 -0.0010157 0)
(-0.00706533 -0.00101036 0)
(-0.00672563 -0.00100196 0)
(-0.00638624 -0.000990775 0)
(-0.00604718 -0.000977097 0)
(-0.00570958 -0.000961219 0)
(-0.00537465 -0.000943547 0)
(-0.00504293 -0.000924678 0)
(-0.00471507 -0.00090516 0)
(-0.00439257 -0.000885147 0)
(-0.00407699 -0.000864454 0)
(-0.00376896 -0.000842744 0)
(-0.00346889 -0.000819478 0)
(-0.00317781 -0.00079408 0)
(-0.00289725 -0.000766067 0)
(-0.00262839 -0.000734772 0)
(-0.00237139 -0.000699519 0)
(-0.00212603 -0.000659882 0)
(-0.00189299 -0.000615441 0)
(-0.00167316 -0.000566155 0)
(-0.00146671 -0.000512479 0)
(-0.00127368 -0.00045477 0)
(-0.00109416 -0.000393726 0)
(-0.000928904 -0.000330348 0)
(-0.000779347 -0.000265235 0)
(-0.000646028 -0.000199079 0)
(-0.000528638 -0.000132545 0)
(-0.000427044 -6.60958e-05 0)
(-0.000341222 -7.60593e-07 0)
(-0.000271225 6.20035e-05 0)
(-0.000216757 0.000120528 0)
(-0.000176512 0.000172711 0)
(-0.000148402 0.00021549 0)
(-0.000130162 0.000244521 0)
(-0.000119081 0.000253946 0)
(-0.000110927 0.000235841 0)
(-0.000101322 0.000179633 0)
(-8.36356e-05 7.05821e-05 0)
(-5.12581e-05 -8.40405e-05 0)
(-1.94761e-05 -0.00011958 0)
(-8.63542e-05 0.0004217 0)
(-0.000208056 0.000410298 0)
(-0.000334355 1.05218e-05 0)
(-0.000407838 -0.000280584 0)
(-0.00044529 -0.000446955 0)
(-0.000475099 -0.000519309 0)
(-0.000507845 -0.000532115 0)
(-0.0005454 -0.000495151 0)
(-0.000598243 -0.000428802 0)
(-0.000664981 -0.000334702 0)
(-0.000745886 -0.00022626 0)
(-0.000845947 -0.000102122 0)
(-0.000959308 2.7638e-05 0)
(-0.00108786 0.000163064 0)
(-0.00123036 0.000297875 0)
(-0.00138548 0.000432721 0)
(-0.00155599 0.000562092 0)
(-0.00174026 0.000685335 0)
(-0.00193619 0.0007998 0)
(-0.00214826 0.000905144 0)
(-0.00237362 0.000999625 0)
(-0.00261071 0.00108422 0)
(-0.00286393 0.00115807 0)
(-0.00313013 0.00122002 0)
(-0.00340918 0.00127478 0)
(-0.00370193 0.00131633 0)
(-0.00400622 0.00135169 0)
(-0.00432257 0.00137692 0)
(-0.00465009 0.00139486 0)
(-0.00498777 0.00140587 0)
(-0.00533488 0.00141005 0)
(-0.0056909 0.00140929 0)
(-0.00605568 0.00140307 0)
(-0.00642688 0.0013931 0)
(-0.00680449 0.00138014 0)
(-0.00718746 0.00136459 0)
(-0.00757456 0.00134704 0)
(-0.00796448 0.0013277 0)
(-0.00835598 0.00130639 0)
(-0.00874876 0.00128322 0)
(-0.00914195 0.00125841 0)
(-0.009535 0.00123261 0)
(-0.0099276 0.00120615 0)
(-0.0103192 0.0011793 0)
(-0.0107088 0.00115305 0)
(-0.0110952 0.00112771 0)
(-0.0114782 0.00110406 0)
(-0.011857 0.00108287 0)
(-0.0122296 0.00106402 0)
(-0.0125954 0.00104785 0)
(-0.0129534 0.00103359 0)
(-0.0133023 0.00102032 0)
(-0.0136416 0.00100782 0)
(-0.0139706 0.000994836 0)
(-0.0142894 0.000980507 0)
(-0.0145979 0.00096448 0)
(-0.0148956 0.000946088 0)
(-0.015183 0.000925424 0)
(-0.0154602 0.000902333 0)
(-0.0157264 0.00087641 0)
(-0.0159818 0.000848219 0)
(-0.0162263 0.000817922 0)
(-0.0164594 0.000785059 0)
(-0.0166815 0.000749897 0)
(-0.0168922 0.000712826 0)
(-0.0170912 0.000673891 0)
(-0.0172787 0.000633396 0)
(-0.0174541 0.000591577 0)
(-0.0176173 0.000548345 0)
(-0.0177685 0.000503885 0)
(-0.0179068 0.000458571 0)
(-0.0180322 0.000412416 0)
(-0.018145 0.00036533 0)
(-0.0182449 0.000317548 0)
(-0.0183323 0.000269462 0)
(-0.0184068 0.000221353 0)