/*--------------------------------*- C++ -*----------------------------------*\
  =========                 |
  \\      /  F ield         | OpenFOAM: The Open Source CFD Toolbox
   \\    /   O peration     | Website:  https://openfoam.org
    \\  /    A nd           | Version:  7
     \\/     M anipulation  |
\*---------------------------------------------------------------------------*/
FoamFile
{
    version     2.0;
    format      ascii;
    class       surfaceScalarField;
    location    "0.2875";
    object      phi;
}
// * * * * * * * * * * * * * * * * * * * * * * * * * * * * * * * * * * * * * //

dimensions      [0 3 -1 0 0 0 0];

internalField   nonuniform List<scalar> 
50880
(
5.90016e-12
-6.33632e-12
3.61745e-11
-3.02683e-11
8.1079e-11
-4.49143e-11
1.30714e-10
-4.96277e-11
1.77948e-10
-4.72216e-11
2.17792e-10
-3.98495e-11
2.46825e-10
-2.9044e-11
2.62749e-10
-1.59201e-11
2.64024e-10
-1.27442e-12
2.49694e-10
1.43324e-11
2.19198e-10
3.04958e-11
1.72274e-10
4.69206e-11
1.08889e-10
6.33836e-11
2.91763e-11
7.97138e-11
-6.66013e-11
9.57797e-11
-1.7808e-10
1.1148e-10
-3.04819e-10
1.26738e-10
-4.46313e-10
1.41493e-10
-6.02011e-10
1.55698e-10
-7.71327e-10
1.69316e-10
-9.53646e-10
1.82319e-10
-1.14833e-09
1.94686e-10
-1.35473e-09
2.06401e-10
-1.57218e-09
2.17454e-10
-1.80002e-09
2.27836e-10
-2.03757e-09
2.37543e-10
-2.28414e-09
2.46576e-10
-2.53908e-09
2.54934e-10
-2.80169e-09
2.62619e-10
-3.07133e-09
2.69636e-10
-3.34732e-09
2.75991e-10
-3.62901e-09
2.81689e-10
-3.91575e-09
2.86738e-10
-4.20689e-09
2.91147e-10
-4.50182e-09
2.94923e-10
-4.79989e-09
2.98078e-10
-5.10052e-09
3.00623e-10
-5.40308e-09
3.02567e-10
-5.707e-09
3.03921e-10
-6.0117e-09
3.04695e-10
-6.3166e-09
3.04902e-10
-6.62115e-09
3.04554e-10
-6.92482e-09
3.03664e-10
-7.22706e-09
3.02244e-10
-7.52737e-09
3.00305e-10
-7.82523e-09
2.97861e-10
-8.12015e-09
2.94923e-10
-8.41165e-09
2.91505e-10
-8.69927e-09
2.8762e-10
-8.98255e-09
2.8328e-10
-9.26105e-09
2.78499e-10
-9.53434e-09
2.7329e-10
-9.80201e-09
2.67664e-10
-1.00636e-08
2.61636e-10
-1.03189e-08
2.55219e-10
-1.05673e-08
2.48426e-10
-1.08086e-08
2.4127e-10
-1.10423e-08
2.33764e-10
-1.12682e-08
2.25921e-10
-1.1486e-08
2.17755e-10
-1.16953e-08
2.09279e-10
-1.18958e-08
2.00506e-10
-1.20872e-08
1.9145e-10
-1.22694e-08
1.82124e-10
-1.24419e-08
1.72543e-10
-1.26046e-08
1.62718e-10
-1.27573e-08
1.52665e-10
-1.28997e-08
1.42397e-10
-1.30316e-08
1.31927e-10
-1.31529e-08
1.21269e-10
-1.32633e-08
1.10438e-10
-1.33628e-08
9.94479e-11
-1.34511e-08
8.83125e-11
-1.35281e-08
7.70463e-11
-1.35938e-08
6.56637e-11
-1.3648e-08
5.41793e-11
-1.36906e-08
4.2608e-11
-1.37215e-08
3.09643e-11
-1.37408e-08
1.92634e-11
-1.37483e-08
7.52043e-12
-1.37441e-08
-4.24943e-12
-1.3728e-08
-1.60308e-11
-1.37002e-08
-2.78084e-11
-1.36607e-08
-3.95666e-11
-1.36094e-08
-5.12891e-11
-1.35464e-08
-6.296e-11
-1.34719e-08
-7.45632e-11
-1.33858e-08
-8.60828e-11
-1.32883e-08
-9.75025e-11
-1.31795e-08
-1.08806e-10
-1.30595e-08
-1.19976e-10
-1.29285e-08
-1.30996e-10
-1.27866e-08
-1.41849e-10
-1.26341e-08
-1.5252e-10
-1.24711e-08
-1.6299e-10
-1.22979e-08
-1.73243e-10
-1.21146e-08
-1.83262e-10
-1.19216e-08
-1.93028e-10
-1.17191e-08
-2.02526e-10
-1.15073e-08
-2.11739e-10
-1.12867e-08
-2.20649e-10
-1.10574e-08
-2.29239e-10
-1.08199e-08
-2.37493e-10
-1.05745e-08
-2.45393e-10
-1.03216e-08
-2.52922e-10
-1.00616e-08
-2.60064e-10
-9.79476e-09
-2.66803e-10
-9.52164e-09
-2.73122e-10
-9.24263e-09
-2.79005e-10
-8.9582e-09
-2.84435e-10
-8.6688e-09
-2.89398e-10
-8.37492e-09
-2.93878e-10
-8.07706e-09
-2.97859e-10
-7.77574e-09
-3.01327e-10
-7.47147e-09
-3.04268e-10
-7.1648e-09
-3.06667e-10
-6.85629e-09
-3.08512e-10
-6.5465e-09
-3.09789e-10
-6.23601e-09
-3.10486e-10
-5.92542e-09
-3.1059e-10
-5.61534e-09
-3.1009e-10
-5.30636e-09
-3.08975e-10
-4.99913e-09
-3.07236e-10
-4.69426e-09
-3.04861e-10
-4.39242e-09
-3.01845e-10
-4.09424e-09
-2.98178e-10
-3.80039e-09
-2.93853e-10
-3.51152e-09
-2.88866e-10
-3.22831e-09
-2.83209e-10
-2.95143e-09
-2.7688e-10
-2.68155e-09
-2.69877e-10
-2.41936e-09
-2.62198e-10
-2.16551e-09
-2.53843e-10
-1.92069e-09
-2.44816e-10
-1.68558e-09
-2.35118e-10
-1.46082e-09
-2.24758e-10
-1.24707e-09
-2.13744e-10
-1.04499e-09
-2.02087e-10
-8.55188e-10
-1.89801e-10
-6.78285e-10
-1.76905e-10
-5.14863e-10
-1.63423e-10
-3.65479e-10
-1.49383e-10
-2.30654e-10
-1.34823e-10
-1.10864e-10
-1.19787e-10
-6.53181e-12
-1.04331e-10
8.19918e-11
-8.85237e-11
1.54441e-10
-7.24504e-11
2.10657e-10
-5.62191e-11
2.50621e-10
-3.99669e-11
2.74489e-10
-2.38703e-11
2.82648e-10
-8.15937e-12
2.75786e-10
6.8625e-12
2.54999e-10
2.07875e-11
2.21941e-10
3.30575e-11
1.79047e-10
4.28938e-11
1.29842e-10
4.92059e-11
7.93436e-11
5.04994e-11
3.46205e-11
4.47256e-11
5.32927e-12
2.92973e-11
5.33069e-12
3.00352e-11
-3.63728e-11
1.01165e-10
-1.01392e-10
1.95391e-10
-1.39158e-10
2.95661e-10
-1.49915e-10
3.87629e-10
-1.39185e-10
4.60047e-10
-1.12254e-10
5.04451e-10
-7.34431e-11
5.14668e-10
-2.61369e-11
4.863e-10
2.7082e-11
4.16359e-10
8.42667e-11
3.02927e-10
1.43929e-10
1.44916e-10
2.04934e-10
-5.81052e-11
2.66406e-10
-3.06059e-10
3.27667e-10
-5.98465e-10
3.88186e-10
-9.34526e-10
4.47542e-10
-1.31319e-09
5.05405e-10
-1.73321e-09
5.61513e-10
-2.19317e-09
6.15659e-10
-2.69154e-09
6.67682e-10
-3.22667e-09
7.17454e-10
-3.79686e-09
7.64874e-10
-4.40032e-09
8.09868e-10
-5.03525e-09
8.52378e-10
-5.69978e-09
8.92364e-10
-6.39204e-09
9.29801e-10
-7.11013e-09
9.64672e-10
-7.85217e-09
9.96973e-10
-8.61626e-09
1.02671e-09
-9.4005e-09
1.05388e-09
-1.0203e-08
1.07851e-09
-1.10219e-08
1.10061e-09
-1.18554e-08
1.12021e-09
-1.27016e-08
1.13734e-09
-1.35587e-08
1.15202e-09
-1.44249e-08
1.16431e-09
-1.52985e-08
1.17422e-09
-1.61777e-08
1.18179e-09
-1.70609e-08
1.18708e-09
-1.79463e-08
1.19012e-09
-1.88324e-08
1.19095e-09
-1.97174e-08
1.18962e-09
-2.05999e-08
1.18617e-09
-2.14783e-08
1.18065e-09
-2.23512e-08
1.17312e-09
-2.32169e-08
1.1636e-09
-2.40741e-08
1.15216e-09
-2.49215e-08
1.13885e-09
-2.57576e-08
1.1237e-09
-2.65811e-08
1.10678e-09
-2.73907e-08
1.08813e-09
-2.81852e-08
1.0678e-09
-2.89634e-08
1.04585e-09
-2.97241e-08
1.02232e-09
-3.04661e-08
9.97261e-10
-3.11884e-08
9.7073e-10
-3.18899e-08
9.42776e-10
-3.25696e-08
9.13452e-10
-3.32265e-08
8.82808e-10
-3.38596e-08
8.50897e-10
-3.44681e-08
8.17771e-10
-3.50511e-08
7.83482e-10
-3.56077e-08
7.48083e-10
-3.61372e-08
7.11627e-10
-3.66389e-08
6.74168e-10
-3.71119e-08
6.35757e-10
-3.75557e-08
5.96449e-10
-3.79696e-08
5.56299e-10
-3.8353e-08
5.1536e-10
-3.87054e-08
4.73687e-10
-3.90263e-08
4.31336e-10
-3.93153e-08
3.88361e-10
-3.95718e-08
3.4482e-10
-3.97955e-08
3.00767e-10
-3.99861e-08
2.56261e-10
-4.01433e-08
2.11359e-10
-4.02668e-08
1.66117e-10
-4.03564e-08
1.20595e-10
-4.0412e-08
7.48517e-11
-4.04334e-08
2.89458e-11
-4.04206e-08
-1.70626e-11
-4.03735e-08
-6.31131e-11
-4.02922e-08
-1.09144e-10
-4.01766e-08
-1.55095e-10
-4.0027e-08
-2.00903e-10
-3.98435e-08
-2.46506e-10
-3.96262e-08
-2.91841e-10
-3.93754e-08
-3.36843e-10
-3.90915e-08
-3.81451e-10
-3.87747e-08
-4.25598e-10
-3.84255e-08
-4.69221e-10
-3.80442e-08
-5.12253e-10
-3.76314e-08
-5.54631e-10
-3.71877e-08
-5.96286e-10
-3.67135e-08
-6.37154e-10
-3.62096e-08
-6.77167e-10
-3.56766e-08
-7.1626e-10
-3.51152e-08
-7.54366e-10
-3.45263e-08
-7.91419e-10
-3.39107e-08
-8.27352e-10
-3.32693e-08
-8.62098e-10
-3.26029e-08
-8.95592e-10
-3.19126e-08
-9.27767e-10
-3.11995e-08
-9.58557e-10
-3.04645e-08
-9.87899e-10
-2.97088e-08
-1.01573e-09
-2.89337e-08
-1.04198e-09
-2.81402e-08
-1.06658e-09
-2.73297e-08
-1.08949e-09
-2.65035e-08
-1.11063e-09
-2.5663e-08
-1.12994e-09
-2.48095e-08
-1.14737e-09
-2.39445e-08
-1.16285e-09
-2.30695e-08
-1.17634e-09
-2.2186e-08
-1.18777e-09
-2.12956e-08
-1.19709e-09
-2.03998e-08
-1.20425e-09
-1.95004e-08
-1.20921e-09
-1.8599e-08
-1.21191e-09
-1.76973e-08
-1.2123e-09
-1.6797e-08
-1.21035e-09
-1.59e-08
-1.20602e-09
-1.50079e-08
-1.19926e-09
-1.41228e-08
-1.19005e-09
-1.32463e-08
-1.17835e-09
-1.23803e-08
-1.16413e-09
-1.15268e-08
-1.14737e-09
-1.06876e-08
-1.12806e-09
-9.86465e-09
-1.10617e-09
-9.05984e-09
-1.08169e-09
-8.2751e-09
-1.05462e-09
-7.51233e-09
-1.02496e-09
-6.77346e-09
-9.92716e-10
-6.06037e-09
-9.57905e-10
-5.37494e-09
-9.20547e-10
-4.71903e-09
-8.80673e-10
-4.09445e-09
-8.38325e-10
-3.50298e-09
-7.93555e-10
-2.94635e-09
-7.46435e-10
-2.4262e-09
-6.97048e-10
-1.94412e-09
-6.455e-10
-1.50158e-09
-5.9192e-10
-1.09994e-09
-5.36466e-10
-7.40394e-10
-4.79331e-10
-4.23976e-10
-4.2075e-10
-1.51489e-10
-3.61013e-10
7.65342e-11
-3.00475e-10
2.59897e-10
-2.39583e-10
3.98818e-10
-1.78891e-10
4.94045e-10
-1.19099e-10
5.46983e-10
-6.1097e-11
5.59873e-10
-6.02707e-12
5.36029e-10
4.46318e-11
4.80137e-10
8.8949e-11
3.98632e-10
1.24396e-10
3.00142e-10
1.47692e-10
1.95936e-10
1.54705e-10
1.00157e-10
1.405e-10
2.92662e-11
1.00163e-10
3.46018e-11
4.48219e-11
-8.12058e-11
1.39073e-10
-1.9565e-10
2.56265e-10
-2.56341e-10
3.74747e-10
-2.68401e-10
4.76262e-10
-2.40698e-10
5.45933e-10
-1.81922e-10
5.7205e-10
-9.95607e-11
5.45668e-10
2.47344e-13
4.60153e-10
1.12597e-10
3.1077e-10
2.33647e-10
9.43302e-11
3.60367e-10
-1.91115e-10
4.90378e-10
-5.46512e-10
6.21803e-10
-9.72002e-10
7.53158e-10
-1.46707e-09
8.8326e-10
-2.0307e-09
1.01116e-09
-2.66141e-09
1.13612e-09
-3.3574e-09
1.25751e-09
-4.11661e-09
1.37486e-09
-4.93671e-09
1.48779e-09
-5.81523e-09
1.59598e-09
-6.74954e-09
1.69919e-09
-7.7369e-09
1.79723e-09
-8.77448e-09
1.88996e-09
-9.85938e-09
1.97727e-09
-1.09887e-08
2.05908e-09
-1.21593e-08
2.13536e-09
-1.33684e-08
2.20606e-09
-1.46129e-08
2.27119e-09
-1.58898e-08
2.33074e-09
-1.7196e-08
2.38476e-09
-1.85287e-08
2.43326e-09
-1.98848e-08
2.47629e-09
-2.12613e-08
2.51392e-09
-2.26555e-08
2.54619e-09
-2.40644e-08
2.57319e-09
-2.54852e-08
2.59499e-09
-2.6915e-08
2.61166e-09
-2.83512e-08
2.62329e-09
-2.97911e-08
2.62997e-09
-3.12319e-08
2.63179e-09
-3.26712e-08
2.62885e-09
-3.41062e-08
2.62125e-09
-3.55347e-08
2.60908e-09
-3.6954e-08
2.59245e-09
-3.83618e-08
2.57146e-09
-3.97559e-08
2.54621e-09
-4.11339e-08
2.51682e-09
-4.24935e-08
2.48338e-09
-4.38328e-08
2.44602e-09
-4.51495e-08
2.40484e-09
-4.64416e-08
2.35994e-09
-4.77072e-08
2.31144e-09
-4.89444e-08
2.25946e-09
-5.01512e-08
2.20409e-09
-5.13259e-08
2.14547e-09
-5.24668e-08
2.08369e-09
-5.35723e-08
2.01889e-09
-5.46406e-08
1.95115e-09
-5.56703e-08
1.88062e-09
-5.666e-08
1.80739e-09
-5.76081e-08
1.73158e-09
-5.85133e-08
1.65332e-09
-5.93744e-08
1.57272e-09
-6.01901e-08
1.4899e-09
-6.09593e-08
1.40497e-09
-6.16809e-08
1.31805e-09
-6.23539e-08
1.22927e-09
-6.29773e-08
1.13875e-09
-6.35502e-08
1.0466e-09
-6.40718e-08
9.52951e-10
-6.45414e-08
8.57925e-10
-6.49582e-08
7.61646e-10
-6.53217e-08
6.64239e-10
-6.56313e-08
5.6583e-10
-6.58865e-08
4.66546e-10
-6.60869e-08
3.66517e-10
-6.62321e-08
2.6587e-10
-6.6322e-08
1.64738e-10
-6.63563e-08
6.32516e-11
-6.63349e-08
-3.84567e-11
-6.62578e-08
-1.40253e-10
-6.61249e-08
-2.42001e-10
-6.59365e-08
-3.43565e-10
-6.56925e-08
-4.44808e-10
-6.53935e-08
-5.45591e-10
-6.50395e-08
-6.45775e-10
-6.46311e-08
-7.45218e-10
-6.41688e-08
-8.4378e-10
-6.36531e-08
-9.41318e-10
-6.30846e-08
-1.03769e-09
-6.24641e-08
-1.13275e-09
-6.17924e-08
-1.22635e-09
-6.10704e-08
-1.31835e-09
-6.02989e-08
-1.4086e-09
-5.94791e-08
-1.49696e-09
-5.86121e-08
-1.58327e-09
-5.76991e-08
-1.6674e-09
-5.67413e-08
-1.7492e-09
-5.57401e-08
-1.82851e-09
-5.4697e-08
-1.9052e-09
-5.36135e-08
-1.97911e-09
-5.24912e-08
-2.05011e-09
-5.13317e-08
-2.11804e-09
-5.01368e-08
-2.18277e-09
-4.89084e-08
-2.24415e-09
-4.76483e-08
-2.30204e-09
-4.63586e-08
-2.35631e-09
-4.50413e-08
-2.40681e-09
-4.36985e-08
-2.45342e-09
-4.23324e-08
-2.496e-09
-4.09454e-08
-2.53441e-09
-3.95397e-08
-2.56854e-09
-3.81178e-08
-2.59827e-09
-3.66821e-08
-2.62346e-09
-3.52352e-08
-2.64401e-09
-3.37796e-08
-2.6598e-09
-3.23181e-08
-2.67073e-09
-3.08533e-08
-2.67669e-09
-2.9388e-08
-2.67759e-09
-2.7925e-08
-2.67333e-09
-2.64672e-08
-2.66384e-09
-2.50175e-08
-2.64902e-09
-2.35787e-08
-2.62881e-09
-2.21539e-08
-2.60315e-09
-2.07461e-08
-2.57198e-09
-1.93582e-08
-2.53524e-09
-1.79933e-08
-2.4929e-09
-1.66546e-08
-2.44494e-09
-1.53449e-08
-2.39133e-09
-1.40675e-08
-2.33208e-09
-1.28252e-08
-2.26718e-09
-1.16213e-08
-2.19667e-09
-1.04586e-08
-2.12059e-09
-9.34015e-09
-2.03899e-09
-8.26887e-09
-1.95196e-09
-7.2476e-09
-1.85959e-09
-6.27911e-09
-1.76204e-09
-5.36608e-09
-1.65946e-09
-4.51106e-09
-1.55206e-09
-3.71647e-09
-1.4401e-09
-2.98453e-09
-1.32386e-09
-2.31726e-09
-1.20374e-09
-1.71643e-09
-1.08016e-09
-1.18349e-09
-9.53688e-10
-7.19529e-10
-8.24975e-10
-3.25168e-10
-6.94834e-10
-4.94036e-13
-5.64257e-10
2.55085e-10
-4.34472e-10
4.42979e-10
-3.06995e-10
5.65607e-10
-1.83727e-10
6.26629e-10
-6.70496e-11
6.31224e-10
4.0035e-11
5.86436e-10
1.33738e-10
5.01547e-10
2.09287e-10
3.88476e-10
2.60764e-10
2.62129e-10
2.81059e-10
1.40534e-10
2.62097e-10
4.47035e-11
1.95988e-10
7.93044e-11
4.96813e-11
-1.30881e-10
1.50198e-10
-2.96184e-10
2.68977e-10
-3.75111e-10
3.80795e-10
-3.80226e-10
4.64868e-10
-3.24776e-10
5.04131e-10
-2.21186e-10
4.84863e-10
-8.0297e-11
3.963e-10
8.88086e-11
2.30214e-10
2.78685e-10
-1.94471e-11
4.83307e-10
-3.56906e-10
6.97825e-10
-7.84869e-10
9.1834e-10
-1.30478e-09
1.14172e-09
-1.91706e-09
1.36543e-09
-2.62124e-09
1.58745e-09
-3.41619e-09
1.80611e-09
-4.30015e-09
2.02008e-09
-5.27093e-09
2.22828e-09
-6.3259e-09
2.42984e-09
-7.46216e-09
2.62404e-09
-8.6765e-09
2.81032e-09
-9.96553e-09
2.98822e-09
-1.13257e-08
3.15737e-09
-1.27532e-08
3.31751e-09
-1.42444e-08
3.46842e-09
-1.57952e-08
3.60994e-09
-1.74018e-08
3.74196e-09
-1.90602e-08
3.86442e-09
-2.07663e-08
3.97728e-09
-2.25161e-08
4.08055e-09
-2.43056e-08
4.17425e-09
-2.61308e-08
4.25842e-09
-2.79876e-08
4.33314e-09
-2.98722e-08
4.39849e-09
-3.17805e-08
4.45455e-09
-3.37088e-08
4.50146e-09
-3.56531e-08
4.53932e-09
-3.76097e-08
4.56827e-09
-3.95749e-08
4.58846e-09
-4.1545e-08
4.60003e-09
-4.35163e-08
4.60313e-09
-4.54854e-08
4.59793e-09
-4.74487e-08
4.58459e-09
-4.94029e-08
4.56329e-09
-5.13447e-08
4.53419e-09
-5.32707e-08
4.49749e-09
-5.51779e-08
4.45335e-09
-5.7063e-08
4.40196e-09
-5.89231e-08
4.3435e-09
-6.07553e-08
4.27818e-09
-6.25566e-08
4.20616e-09
-6.43243e-08
4.12766e-09
-6.60557e-08
4.04285e-09
-6.77482e-08
3.95194e-09
-6.93992e-08
3.85511e-09
-7.10063e-08
3.75258e-09
-7.25672e-08
3.64453e-09
-7.40794e-08
3.53116e-09
-7.5541e-08
3.41268e-09
-7.69496e-08
3.28928e-09
-7.83034e-08
3.16117e-09
-7.96004e-08
3.02855e-09
-8.08387e-08
2.89162e-09
-8.20166e-08
2.7506e-09
-8.31323e-08
2.60568e-09
-8.41844e-08
2.45708e-09
-8.51714e-08
2.305e-09
-8.60918e-08
2.14965e-09
-8.69443e-08
1.99125e-09
-8.77277e-08
1.83001e-09
-8.84409e-08
1.66615e-09
-8.90828e-08
1.49988e-09
-8.96526e-08
1.33141e-09
-9.01494e-08
1.16098e-09
-9.05723e-08
9.88794e-10
-9.09209e-08
8.15084e-10
-9.11944e-08
6.40072e-10
-9.13925e-08
4.63988e-10
-9.15148e-08
2.87059e-10
-9.15611e-08
1.09517e-10
-9.15312e-08
-6.84056e-11
-9.14249e-08
-2.46473e-10
-9.12425e-08
-4.24449e-10
-9.0984e-08
-6.02095e-10
-9.06496e-08
-7.79168e-10
-9.02398e-08
-9.55428e-10
-8.97549e-08
-1.13063e-09
-8.91956e-08
-1.30452e-09
-8.85625e-08
-1.47687e-09
-8.78564e-08
-1.64741e-09
-8.70782e-08
-1.8159e-09
-8.62289e-08
-1.98208e-09
-8.53095e-08
-2.14571e-09
-8.43213e-08
-2.30652e-09
-8.32657e-08
-2.46426e-09
-8.2144e-08
-2.61869e-09
-8.09577e-08
-2.76953e-09
-7.97086e-08
-2.91654e-09
-7.83983e-08
-3.05946e-09
-7.70288e-08
-3.19803e-09
-7.5602e-08
-3.332e-09
-7.412e-08
-3.46112e-09
-7.25849e-08
-3.58513e-09
-7.09992e-08
-3.70378e-09
-6.93652e-08
-3.81682e-09
-6.76853e-08
-3.92401e-09
-6.59622e-08
-4.02511e-09
-6.41987e-08
-4.11986e-09
-6.23975e-08
-4.20804e-09
-6.05615e-08
-4.28941e-09
-5.86937e-08
-4.36374e-09
-5.67973e-08
-4.43081e-09
-5.48755e-08
-4.4904e-09
-5.29314e-08
-4.5423e-09
-5.09686e-08
-4.5863e-09
-4.89904e-08
-4.6222e-09
-4.70004e-08
-4.64981e-09
-4.50022e-08
-4.66895e-09
-4.29994e-08
-4.67943e-09
-4.09959e-08
-4.68111e-09
-3.89954e-08
-4.67382e-09
-3.70019e-08
-4.65741e-09
-3.50191e-08
-4.63176e-09
-3.30512e-08
-4.59674e-09
-3.11021e-08
-4.55225e-09
-2.91759e-08
-4.49819e-09
-2.72766e-08
-4.4345e-09
-2.54084e-08
-4.36111e-09
-2.35754e-08
-4.27798e-09
-2.17816e-08
-4.18509e-09
-2.00313e-08
-4.08245e-09
-1.83284e-08
-3.97008e-09
-1.6677e-08
-3.84805e-09
-1.50811e-08
-3.71643e-09
-1.35448e-08
-3.57534e-09
-1.20718e-08
-3.42496e-09
-1.06659e-08
-3.26547e-09
-9.3308e-09
-3.09714e-09
-8.06998e-09
-2.92029e-09
-6.88675e-09
-2.73529e-09
-5.78425e-09
-2.5426e-09
-4.76531e-09
-2.3428e-09
-3.83251e-09
-2.13654e-09
-2.98802e-09
-1.92465e-09
-2.23361e-09
-1.7081e-09
-1.57053e-09
-1.48805e-09
-9.99418e-10
-1.26595e-09
-5.2017e-10
-1.04351e-09
-1.31808e-10
-8.22833e-10
1.67698e-10
-6.06502e-10
3.81644e-10
-3.97673e-10
5.14832e-10
-2.0024e-10
5.73859e-10
-1.89977e-11
5.67439e-10
1.40149e-10
5.06746e-10
2.69972e-10
4.05768e-10
3.61743e-10
2.81646e-10
4.05188e-10
1.55004e-10
3.88745e-10
5.05454e-11
3.00452e-10
1.29847e-10
4.74673e-11
-1.78343e-10
1.40104e-10
-3.88833e-10
2.42466e-10
-4.77472e-10
3.27153e-10
-4.64919e-10
3.71815e-10
-3.69441e-10
3.58097e-10
-2.07467e-10
2.71088e-10
6.71212e-12
9.88917e-11
2.61005e-10
-1.67753e-10
5.45329e-10
-5.35812e-10
8.51363e-10
-1.01027e-09
1.17228e-09
-1.59442e-09
1.50249e-09
-2.29012e-09
1.83743e-09
-3.09804e-09
2.17336e-09
-4.01781e-09
2.50722e-09
-5.04821e-09
2.83651e-09
-6.18731e-09
3.15918e-09
-7.43258e-09
3.47356e-09
-8.781e-09
3.77826e-09
-1.02291e-08
4.07217e-09
-1.17732e-08
4.35438e-09
-1.34091e-08
4.62415e-09
-1.51326e-08
4.88089e-09
-1.69393e-08
5.12414e-09
-1.88244e-08
5.35353e-09
-2.07832e-08
5.5688e-09
-2.2811e-08
5.76974e-09
-2.49028e-08
5.95624e-09
-2.70538e-08
6.12821e-09
-2.92588e-08
6.28563e-09
-3.15131e-08
6.42851e-09
-3.38116e-08
6.55692e-09
-3.61494e-08
6.67092e-09
-3.85215e-08
6.77064e-09
-4.09232e-08
6.85622e-09
-4.33495e-08
6.9278e-09
-4.57958e-08
6.98556e-09
-4.82572e-08
7.0297e-09
-5.07292e-08
7.06042e-09
-5.32071e-08
7.07795e-09
-5.56865e-08
7.0825e-09
-5.81629e-08
7.07433e-09
-6.06319e-08
7.05368e-09
-6.30895e-08
7.0208e-09
-6.55312e-08
6.97597e-09
-6.79532e-08
6.91944e-09
-7.03513e-08
6.85149e-09
-7.27218e-08
6.77241e-09
-7.50607e-08
6.68246e-09
-7.73645e-08
6.58195e-09
-7.96295e-08
6.47115e-09
-8.18522e-08
6.35036e-09
-8.40292e-08
6.21988e-09
-8.61573e-08
6.08e-09
-8.82332e-08
5.93103e-09
-9.02539e-08
5.77326e-09
-9.22164e-08
5.607e-09
-9.41177e-08
5.43256e-09
-9.59553e-08
5.25024e-09
-9.77264e-08
5.06035e-09
-9.94284e-08
4.8632e-09
-1.01059e-07
4.65911e-09
-1.02616e-07
4.44838e-09
-1.04096e-07
4.23135e-09
-1.05499e-07
4.00832e-09
-1.06822e-07
3.77962e-09
-1.08062e-07
3.54556e-09
-1.09219e-07
3.30648e-09
-1.1029e-07
3.0627e-09
-1.11275e-07
2.81455e-09
-1.12171e-07
2.56236e-09
-1.12978e-07
2.30647e-09
-1.13694e-07
2.04721e-09
-1.14318e-07
1.78492e-09
-1.14849e-07
1.51994e-09
-1.15286e-07
1.25262e-09
-1.15629e-07
9.83304e-10
-1.15878e-07
7.12346e-10
-1.16031e-07
4.40097e-10
-1.16088e-07
1.66915e-10
-1.1605e-07
-1.06843e-10
-1.15915e-07
-3.80812e-10
-1.15685e-07
-6.54629e-10
-1.15359e-07
-9.27924e-10
-1.14938e-07
-1.20033e-09
-1.14422e-07
-1.47146e-09
-1.13812e-07
-1.74096e-09
-1.13108e-07
-2.00843e-09
-1.12311e-07
-2.2735e-09
-1.11423e-07
-2.53579e-09
-1.10444e-07
-2.7949e-09
-1.09376e-07
-3.05045e-09
-1.08219e-07
-3.30205e-09
-1.06977e-07
-3.54931e-09
-1.05649e-07
-3.79184e-09
-1.04238e-07
-4.02924e-09
-1.02747e-07
-4.26113e-09
-1.01176e-07
-4.48711e-09
-9.95289e-08
-4.70679e-09
-9.78071e-08
-4.91977e-09
-9.60135e-08
-5.12567e-09
-9.41505e-08
-5.3241e-09
-9.22209e-08
-5.51467e-09
-9.02277e-08
-5.69699e-09
-8.81739e-08
-5.87069e-09
-8.60625e-08
-6.03538e-09
-8.38969e-08
-6.1907e-09
-8.16805e-08
-6.33628e-09
-7.94168e-08
-6.47176e-09
-7.71094e-08
-6.59678e-09
-7.47621e-08
-6.71099e-09
-7.23789e-08
-6.81405e-09
-6.99637e-08
-6.90563e-09
-6.75206e-08
-6.9854e-09
-6.50538e-08
-7.05307e-09
-6.25677e-08
-7.10831e-09
-6.00667e-08
-7.15085e-09
-5.75552e-08
-7.1804e-09
-5.50379e-08
-7.19671e-09
-5.25195e-08
-7.19952e-09
-5.00047e-08
-7.18861e-09
-4.74984e-08
-7.16376e-09
-4.50054e-08
-7.12477e-09
-4.25306e-08
-7.07148e-09
-4.00792e-08
-7.00371e-09
-3.7656e-08
-6.92135e-09
-3.52662e-08
-6.8243e-09
-3.29148e-08
-6.71246e-09
-3.0607e-08
-6.5858e-09
-2.83478e-08
-6.4443e-09
-2.61423e-08
-6.28797e-09
-2.39955e-08
-6.11689e-09
-2.19124e-08
-5.93115e-09
-1.98979e-08
-5.73091e-09
-1.79569e-08
-5.51638e-09
-1.6094e-08
-5.28782e-09
-1.43139e-08
-5.04557e-09
-1.2621e-08
-4.79006e-09
-1.10195e-08
-4.52179e-09
-9.51338e-09
-4.24139e-09
-8.10639e-09
-3.94959e-09
-6.8019e-09
-3.64729e-09
-5.6029e-09
-3.33555e-09
-4.51191e-09
-3.01564e-09
-3.53092e-09
-2.68908e-09
-2.6613e-09
-2.35768e-09
-1.90363e-09
-2.02361e-09
-1.25764e-09
-1.68949e-09
-7.22009e-10
-1.35847e-09
-2.94188e-10
-1.03432e-09
2.97988e-11
-7.21663e-10
2.55605e-10
-4.26046e-10
3.90822e-10
-1.54213e-10
4.45275e-10
8.5696e-11
4.31336e-10
2.83909e-10
3.64258e-10
4.28822e-10
2.62564e-10
5.06881e-10
1.48576e-10
5.02729e-10
4.94078e-11
3.99625e-10
1.79254e-10
4.0353e-11
-2.18697e-10
1.14073e-10
-4.62535e-10
1.85404e-10
-5.48798e-10
2.26199e-10
-5.05714e-10
2.13428e-10
-3.56672e-10
1.28135e-10
-1.22178e-10
-4.51765e-11
1.80025e-10
-3.19008e-10
5.34838e-10
-7.03215e-10
9.29535e-10
-1.20532e-09
1.35346e-09
-1.83079e-09
1.79775e-09
-2.58334e-09
2.25504e-09
-3.46511e-09
2.71921e-09
-4.47695e-09
3.1852e-09
-5.61856e-09
3.64882e-09
-6.88867e-09
4.10661e-09
-8.28518e-09
4.55569e-09
-9.80532e-09
4.9937e-09
-1.14457e-08
5.41865e-09
-1.32025e-08
5.82895e-09
-1.50714e-08
6.22327e-09
-1.70477e-08
6.60051e-09
-1.91266e-08
6.95981e-09
-2.1303e-08
7.30047e-09
-2.35714e-08
7.62194e-09
-2.59264e-08
7.92379e-09
-2.83624e-08
8.20572e-09
-3.08736e-08
8.46749e-09
-3.34544e-08
8.70899e-09
-3.60989e-08
8.93013e-09
-3.88013e-08
9.13091e-09
-4.15558e-08
9.31139e-09
-4.43565e-08
9.47166e-09
-4.71977e-08
9.61185e-09
-5.00736e-08
9.73215e-09
-5.29786e-08
9.83274e-09
-5.59069e-08
9.91388e-09
-5.8853e-08
9.9758e-09
-6.18114e-08
1.00188e-08
-6.47766e-08
1.00432e-08
-6.77433e-08
1.00492e-08
-7.07062e-08
1.00373e-08
-7.36602e-08
1.00077e-08
-7.66002e-08
9.96081e-09
-7.95213e-08
9.89701e-09
-8.24185e-08
9.81666e-09
-8.52871e-08
9.72014e-09
-8.81226e-08
9.60784e-09
-9.09202e-08
9.48015e-09
-9.36758e-08
9.33748e-09
-9.63849e-08
9.18024e-09
-9.90433e-08
9.00883e-09
-1.01647e-07
8.82368e-09
-1.04192e-07
8.62519e-09
-1.06675e-07
8.4138e-09
-1.09092e-07
8.18993e-09
-1.11439e-07
7.95402e-09
-1.13713e-07
7.70648e-09
-1.1591e-07
7.44777e-09
-1.18028e-07
7.17831e-09
-1.20064e-07
6.89856e-09
-1.22013e-07
6.60894e-09
-1.23875e-07
6.30992e-09
-1.25646e-07
6.00194e-09
-1.27323e-07
5.68544e-09
-1.28904e-07
5.3609e-09
-1.30387e-07
5.02876e-09
-1.3177e-07
4.6895e-09
-1.33051e-07
4.34356e-09
-1.34228e-07
3.99142e-09
-1.35299e-07
3.63356e-09
-1.36263e-07
3.27045e-09
-1.37118e-07
2.90256e-09
-1.37864e-07
2.53038e-09
-1.38498e-07
2.15439e-09
-1.39021e-07
1.77509e-09
-1.3943e-07
1.39298e-09
-1.39727e-07
1.00854e-09
-1.39909e-07
6.22279e-10
-1.39977e-07
2.34709e-10
-1.3993e-07
-1.53663e-10
-1.39768e-07
-5.42321e-10
-1.39492e-07
-9.30748e-10
-1.39102e-07
-1.31842e-09
-1.38597e-07
-1.70481e-09
-1.37979e-07
-2.08938e-09
-1.37249e-07
-2.47161e-09
-1.36406e-07
-2.85095e-09
-1.35453e-07
-3.22687e-09
-1.3439e-07
-3.59881e-09
-1.33218e-07
-3.96624e-09
-1.3194e-07
-4.3286e-09
-1.30557e-07
-4.68534e-09
-1.2907e-07
-5.03591e-09
-1.27482e-07
-5.37975e-09
-1.25795e-07
-5.71631e-09
-1.24011e-07
-6.04503e-09
-1.22133e-07
-6.36536e-09
-1.20163e-07
-6.67674e-09
-1.18104e-07
-6.97862e-09
-1.1596e-07
-7.27044e-09
-1.13732e-07
-7.55166e-09
-1.11425e-07
-7.82173e-09
-1.09042e-07
-8.08011e-09
-1.06586e-07
-8.32626e-09
-1.04062e-07
-8.55965e-09
-1.01473e-07
-8.77975e-09
-9.88233e-08
-8.98606e-09
-9.6117e-08
-9.17805e-09
-9.33585e-08
-9.35523e-09
-9.05524e-08
-9.51711e-09
-8.77032e-08
-9.66322e-09
-8.48158e-08
-9.79308e-09
-8.18949e-08
-9.90624e-09
-7.89457e-08
-1.00023e-08
-7.59733e-08
-1.00808e-08
-7.29828e-08
-1.01413e-08
-6.99798e-08
-1.01835e-08
-6.69696e-08
-1.02069e-08
-6.39577e-08
-1.02114e-08
-6.09499e-08
-1.01964e-08
-5.79518e-08
-1.01618e-08
-5.49693e-08
-1.01073e-08
-5.20081e-08
-1.00326e-08
-4.90743e-08
-9.93757e-09
-4.61737e-08
-9.82199e-09
-4.33122e-08
-9.68572e-09
-4.0496e-08
-9.5287e-09
-3.77309e-08
-9.35085e-09
-3.5023e-08
-9.15219e-09
-3.23783e-08
-8.93276e-09
-2.98025e-08
-8.69267e-09
-2.73015e-08
-8.4321e-09
-2.48812e-08
-8.15127e-09
-2.2547e-08
-7.85052e-09
-2.03046e-08
-7.53026e-09
-1.81592e-08
-7.19099e-09
-1.61159e-08
-6.83335e-09
-1.41796e-08
-6.45809e-09
-1.23548e-08
-6.06613e-09
-1.06459e-08
-5.65854e-09
-9.05656e-09
-5.23662e-09
-7.5902e-09
-4.80191e-09
-6.24962e-09
-4.35622e-09
-5.03701e-09
-3.9017e-09
-3.95378e-09
-3.44091e-09
-3.00052e-09
-2.97687e-09
-2.1768e-09
-2.51322e-09
-1.48104e-09
-2.05423e-09
-9.10301e-10
-1.60506e-09
-4.60145e-10
-1.17182e-09
-1.24345e-10
-7.61849e-10
1.05325e-10
-3.83887e-10
2.39359e-10
-4.8342e-11
2.90814e-10
2.32457e-10
2.75626e-10
4.44011e-10
2.13044e-10
5.69458e-10
1.26246e-10
5.89522e-10
4.3365e-11
4.82505e-10
2.2262e-10
2.98919e-11
-2.48599e-10
7.63882e-11
-5.0902e-10
1.05194e-10
-5.77606e-10
8.86023e-11
-4.89126e-10
3.7169e-12
-2.71787e-10
-1.68428e-10
4.99661e-11
-4.43434e-10
4.55031e-10
-8.33979e-10
9.25382e-10
-1.35015e-09
1.4457e-09
-1.99971e-09
2.00303e-09
-2.7884e-09
2.58644e-09
-3.72011e-09
3.18676e-09
-4.79718e-09
3.79628e-09
-6.02053e-09
4.40854e-09
-7.38986e-09
5.01816e-09
-8.90385e-09
5.6206e-09
-1.05603e-08
6.2121e-09
-1.23561e-08
6.78951e-09
-1.42876e-08
7.35019e-09
-1.63506e-08
7.89197e-09
-1.85404e-08
8.41304e-09
-2.08518e-08
8.91192e-09
-2.32794e-08
9.38739e-09
-2.58174e-08
9.83848e-09
-2.84598e-08
1.02644e-08
-3.12006e-08
1.06645e-08
-3.40333e-08
1.10384e-08
-3.69515e-08
1.13857e-08
-3.99488e-08
1.17063e-08
-4.30186e-08
1.19999e-08
-4.61542e-08
1.22665e-08
-4.9349e-08
1.25062e-08
-5.25964e-08
1.27191e-08
-5.58899e-08
1.29053e-08
-5.92227e-08
1.3065e-08
-6.25886e-08
1.31986e-08
-6.59808e-08
1.33061e-08
-6.93932e-08
1.33881e-08
-7.28192e-08
1.34449e-08
-7.62528e-08
1.34768e-08
-7.96878e-08
1.34842e-08
-8.31181e-08
1.34676e-08
-8.65378e-08
1.34274e-08
-8.9941e-08
1.33641e-08
-9.33221e-08
1.32781e-08
-9.66755e-08
1.317e-08
-9.99956e-08
1.30402e-08
-1.03277e-07
1.28894e-08
-1.06515e-07
1.27179e-08
-1.09704e-07
1.25263e-08
-1.12839e-07
1.23152e-08
-1.15915e-07
1.20852e-08
-1.18928e-07
1.18367e-08
-1.21873e-07
1.15703e-08
-1.24746e-07
1.12866e-08
-1.27542e-07
1.09862e-08
-1.30258e-07
1.06696e-08
-1.32889e-07
1.03374e-08
-1.35431e-07
9.99027e-09
-1.37882e-07
9.62869e-09
-1.40236e-07
9.25329e-09
-1.42492e-07
8.86467e-09
-1.44646e-07
8.46343e-09
-1.46694e-07
8.05016e-09
-1.48634e-07
7.62547e-09
-1.50463e-07
7.18999e-09
-1.52178e-07
6.74432e-09
-1.53778e-07
6.28908e-09
-1.55259e-07
5.8249e-09
-1.5662e-07
5.35241e-09
-1.57859e-07
4.87224e-09
-1.58974e-07
4.38503e-09
-1.59962e-07
3.89142e-09
-1.60824e-07
3.39207e-09
-1.61557e-07
2.88762e-09
-1.62161e-07
2.37874e-09
-1.62634e-07
1.86609e-09
-1.62976e-07
1.35034e-09
-1.63186e-07
8.32168e-10
-1.63263e-07
3.12249e-10
-1.63208e-07
-2.08727e-10
-1.63021e-07
-7.30069e-10
-1.627e-07
-1.25108e-09
-1.62248e-07
-1.77106e-09
-1.61663e-07
-2.2893e-09
-1.60947e-07
-2.80508e-09
-1.60101e-07
-3.31769e-09
-1.59126e-07
-3.82642e-09
-1.58022e-07
-4.33052e-09
-1.56792e-07
-4.82928e-09
-1.55436e-07
-5.32196e-09
-1.53957e-07
-5.80783e-09
-1.52356e-07
-6.28613e-09
-1.50636e-07
-6.75615e-09
-1.48798e-07
-7.21712e-09
-1.46846e-07
-7.66831e-09
-1.44782e-07
-8.10898e-09
-1.42609e-07
-8.53837e-09
-1.4033e-07
-8.95576e-09
-1.37949e-07
-9.36039e-09
-1.35468e-07
-9.75154e-09
-1.32891e-07
-1.01285e-08
-1.30222e-07
-1.04904e-08
-1.27465e-07
-1.08367e-08
-1.24625e-07
-1.11667e-08
-1.21705e-07
-1.14795e-08
-1.1871e-07
-1.17745e-08
-1.15645e-07
-1.2051e-08
-1.12515e-07
-1.23084e-08
-1.09324e-07
-1.25459e-08
-1.06079e-07
-1.2763e-08
-1.02783e-07
-1.29589e-08
-9.94428e-08
-1.31332e-08
-9.60639e-08
-1.32851e-08
-9.26521e-08
-1.34141e-08
-8.92133e-08
-1.35196e-08
-8.57534e-08
-1.36012e-08
-8.22787e-08
-1.36582e-08
-7.87953e-08
-1.36903e-08
-7.53098e-08
-1.36969e-08
-7.18284e-08
-1.36778e-08
-6.83579e-08
-1.36324e-08
-6.49048e-08
-1.35604e-08
-6.14758e-08
-1.34616e-08
-5.80777e-08
-1.33357e-08
-5.47173e-08
-1.31824e-08
-5.14013e-08
-1.30017e-08
-4.81367e-08
-1.27933e-08
-4.49302e-08
-1.25574e-08
-4.17886e-08
-1.22938e-08
-3.87187e-08
-1.20026e-08
-3.57273e-08
-1.16842e-08
-3.28208e-08
-1.13386e-08
-3.00058e-08
-1.09663e-08
-2.72887e-08
-1.05677e-08
-2.46755e-08
-1.01434e-08
-2.21724e-08
-9.69412e-09
-1.9785e-08
-9.22076e-09
-1.75187e-08
-8.72436e-09
-1.53787e-08
-8.20616e-09
-1.33696e-08
-7.66766e-09
-1.14956e-08
-7.11061e-09
-9.76042e-09
-6.53709e-09
-8.16711e-09
-5.94953e-09
-6.71801e-09
-5.35079e-09
-5.41465e-09
-4.74427e-09
-4.25759e-09
-4.13394e-09
-3.24633e-09
-3.52448e-09
-2.37912e-09
-2.92144e-09
-1.65282e-09
-2.33136e-09
-1.06268e-09
-1.76196e-09
-6.02166e-10
-1.22236e-09
-2.62725e-10
-7.23327e-10
-3.35482e-11
-2.7752e-10
9.86841e-11
1.00218e-10
1.50136e-10
3.92557e-10
1.4021e-10
5.79381e-10
9.21509e-11
6.37582e-10
3.39168e-11
5.40736e-10
2.56536e-10
1.71804e-11
-2.65776e-10
3.03737e-11
-5.22207e-10
7.83315e-12
-5.55066e-10
-7.68057e-11
-4.04492e-10
-2.45627e-10
-1.02965e-10
-5.17088e-10
3.21426e-10
-9.06476e-10
8.44417e-10
-1.42629e-09
1.44519e-09
-2.08654e-09
2.10595e-09
-2.89499e-09
2.81147e-09
-3.85738e-09
3.54884e-09
-4.97767e-09
4.30705e-09
-6.25819e-09
5.0768e-09
-7.69986e-09
5.85021e-09
-9.30234e-09
6.62063e-09
-1.10642e-08
7.38244e-09
-1.2983e-08
8.13091e-09
-1.50555e-08
8.86203e-09
-1.72778e-08
9.57248e-09
-1.96453e-08
1.02594e-08
-2.21528e-08
1.09206e-08
-2.47948e-08
1.15539e-08
-2.75653e-08
1.21579e-08
-3.04581e-08
1.27313e-08
-3.34666e-08
1.32729e-08
-3.6584e-08
1.37819e-08
-3.98033e-08
1.42578e-08
-4.31176e-08
1.47e-08
-4.65195e-08
1.51082e-08
-5.00018e-08
1.54822e-08
-5.35572e-08
1.58219e-08
-5.71783e-08
1.61273e-08
-6.08577e-08
1.63985e-08
-6.45881e-08
1.66357e-08
-6.83622e-08
1.68391e-08
-7.21728e-08
1.70091e-08
-7.60124e-08
1.71458e-08
-7.98742e-08
1.72498e-08
-8.37508e-08
1.73215e-08
-8.76354e-08
1.73614e-08
-9.15211e-08
1.73699e-08
-9.54012e-08
1.73476e-08
-9.92688e-08
1.7295e-08
-1.03118e-07
1.72128e-08
-1.06941e-07
1.71015e-08
-1.10733e-07
1.69617e-08
-1.14487e-07
1.67942e-08
-1.18197e-07