/*--------------------------------*- C++ -*----------------------------------*\
  =========                 |
  \\      /  F ield         | OpenFOAM: The Open Source CFD Toolbox
   \\    /   O peration     | Website:  https://openfoam.org
    \\  /    A nd           | Version:  7
     \\/     M anipulation  |
\*---------------------------------------------------------------------------*/
FoamFile
{
    version     2.0;
    format      ascii;
    class       volVectorField;
    location    "0.2875";
    object      U;
}
// * * * * * * * * * * * * * * * * * * * * * * * * * * * * * * * * * * * * * //

dimensions      [0 1 -1 0 0 0 0];

internalField   nonuniform List<vector> 
25600
(
(1.74427e-07 -2.10976e-07 0)
(2.83087e-06 -1.79741e-06 0)
(9.07201e-06 -2.83413e-06 0)
(1.69231e-05 -3.206e-06 0)
(2.48802e-05 -3.12209e-06 0)
(3.19933e-05 -2.74455e-06 0)
(3.76089e-05 -2.17974e-06 0)
(4.12792e-05 -1.49866e-06 0)
(4.27048e-05 -7.48434e-07 0)
(4.16923e-05 4.0511e-08 0)
(3.81248e-05 8.47795e-07 0)
(3.19397e-05 1.65954e-06 0)
(2.31156e-05 2.46576e-06 0)
(1.16622e-05 3.25912e-06 0)
(-2.38722e-06 4.03419e-06 0)
(-1.89816e-05 4.78699e-06 0)
(-3.80558e-05 5.51461e-06 0)
(-5.95335e-05 6.21486e-06 0)
(-8.33298e-05 6.88612e-06 0)
(-0.000109353 7.52717e-06 0)
(-0.000137507 8.13717e-06 0)
(-0.000167692 8.71551e-06 0)
(-0.000199804 9.2618e-06 0)
(-0.000233737 9.77581e-06 0)
(-0.000269386 1.02575e-05 0)
(-0.000306643 1.07068e-05 0)
(-0.000345398 1.11241e-05 0)
(-0.000385545 1.15095e-05 0)
(-0.000426975 1.18632e-05 0)
(-0.000469581 1.21856e-05 0)
(-0.000513257 1.2477e-05 0)
(-0.000557897 1.2738e-05 0)
(-0.000603396 1.29689e-05 0)
(-0.000649651 1.31701e-05 0)
(-0.000696561 1.33423e-05 0)
(-0.000744025 1.34858e-05 0)
(-0.000791945 1.36014e-05 0)
(-0.000840223 1.36895e-05 0)
(-0.000888765 1.37507e-05 0)
(-0.000937476 1.37853e-05 0)
(-0.000986266 1.37942e-05 0)
(-0.00103504 1.37778e-05 0)
(-0.00108372 1.37368e-05 0)
(-0.00113222 1.36718e-05 0)
(-0.00118044 1.35833e-05 0)
(-0.00122831 1.34719e-05 0)
(-0.00127575 1.33382e-05 0)
(-0.00132269 1.31828e-05 0)
(-0.00136904 1.30063e-05 0)
(-0.00141472 1.28093e-05 0)
(-0.00145968 1.25925e-05 0)
(-0.00150384 1.23563e-05 0)
(-0.00154714 1.21014e-05 0)
(-0.0015895 1.18284e-05 0)
(-0.00163086 1.15379e-05 0)
(-0.00167117 1.12305e-05 0)
(-0.00171036 1.09067e-05 0)
(-0.00174837 1.05673e-05 0)
(-0.00178516 1.02127e-05 0)
(-0.00182067 9.84355e-06 0)
(-0.00185484 9.46048e-06 0)
(-0.00188764 9.06408e-06 0)
(-0.001919 8.65496e-06 0)
(-0.0019489 8.23373e-06 0)
(-0.00197728 7.80099e-06 0)
(-0.00200411 7.35734e-06 0)
(-0.00202935 6.9034e-06 0)
(-0.00205296 6.43976e-06 0)
(-0.00207492 5.96704e-06 0)
(-0.00209518 5.48587e-06 0)
(-0.00211372 4.99688e-06 0)
(-0.00213052 4.50069e-06 0)
(-0.00214555 3.99794e-06 0)
(-0.00215878 3.48928e-06 0)
(-0.0021702 2.97535e-06 0)
(-0.00217979 2.45679e-06 0)
(-0.00218754 1.93427e-06 0)
(-0.00219343 1.40844e-06 0)
(-0.00219745 8.79978e-07 0)
(-0.00219959 3.49558e-07 0)
(-0.00219985 -1.82134e-07 0)
(-0.00219823 -7.14418e-07 0)
(-0.00219472 -1.24661e-06 0)
(-0.00218933 -1.77801e-06 0)
(-0.00218206 -2.30789e-06 0)
(-0.00217292 -2.83552e-06 0)
(-0.00216192 -3.36018e-06 0)
(-0.00214906 -3.88114e-06 0)
(-0.00213437 -4.3977e-06 0)
(-0.00211786 -4.9091e-06 0)
(-0.00209955 -5.41457e-06 0)
(-0.00207947 -5.91336e-06 0)
(-0.00205763 -6.40475e-06 0)
(-0.00203407 -6.88798e-06 0)
(-0.00200883 -7.36227e-06 0)
(-0.00198192 -7.82684e-06 0)
(-0.00195339 -8.28089e-06 0)
(-0.00192327 -8.72364e-06 0)
(-0.00189162 -9.15435e-06 0)
(-0.00185847 -9.57225e-06 0)
(-0.00182386 -9.97655e-06 0)
(-0.00178786 -1.03665e-05 0)
(-0.00175051 -1.07412e-05 0)
(-0.00171186 -1.11001e-05 0)
(-0.00167198 -1.14422e-05 0)
(-0.00163093 -1.17668e-05 0)
(-0.00158876 -1.20733e-05 0)
(-0.00154555 -1.23607e-05 0)
(-0.00150136 -1.26285e-05 0)
(-0.00145627 -1.28758e-05 0)
(-0.00141034 -1.31019e-05 0)
(-0.00136366 -1.3306e-05 0)
(-0.0013163 -1.34876e-05 0)
(-0.00126835 -1.36459e-05 0)
(-0.00121988 -1.37802e-05 0)
(-0.00117098 -1.38899e-05 0)
(-0.00112175 -1.39744e-05 0)
(-0.00107226 -1.40329e-05 0)
(-0.00102262 -1.4065e-05 0)
(-0.000972907 -1.407e-05 0)
(-0.000923229 -1.40474e-05 0)
(-0.00087368 -1.39967e-05 0)
(-0.000824359 -1.39173e-05 0)
(-0.000775366 -1.38087e-05 0)
(-0.000726804 -1.36706e-05 0)
(-0.000678777 -1.35025e-05 0)
(-0.000631388 -1.33041e-05 0)
(-0.000584745 -1.3075e-05 0)
(-0.000538953 -1.28149e-05 0)
(-0.00049412 -1.25235e-05 0)
(-0.000450353 -1.22006e-05 0)
(-0.000407761 -1.18462e-05 0)
(-0.000366452 -1.146e-05 0)
(-0.000326533 -1.10421e-05 0)
(-0.000288112 -1.05924e-05 0)
(-0.000251297 -1.01112e-05 0)
(-0.000216192 -9.59856e-06 0)
(-0.000182901 -9.05489e-06 0)
(-0.000151527 -8.48055e-06 0)
(-0.000122168 -7.87609e-06 0)
(-9.49211e-05 -7.24231e-06 0)
(-6.98766e-05 -6.58024e-06 0)
(-4.71217e-05 -5.89117e-06 0)
(-2.67364e-05 -5.17673e-06 0)
(-8.79314e-06 -4.43896e-06 0)
(6.64567e-06 -3.68052e-06 0)
(1.95298e-05 -2.90478e-06 0)
(2.98245e-05 -2.11614e-06 0)
(3.75139e-05 -1.32031e-06 0)
(4.26076e-05 -5.24996e-07 0)
(4.51465e-05 2.59312e-07 0)
(4.52137e-05 1.01804e-06 0)
(4.29475e-05 1.73035e-06 0)
(3.8562e-05 2.36557e-06 0)
(3.23769e-05 2.8774e-06 0)
(2.48602e-05 3.19549e-06 0)
(1.66777e-05 3.21507e-06 0)
(8.78082e-06 2.78009e-06 0)
(2.645e-06 1.69803e-06 0)
(1.22694e-07 1.23177e-07 0)
(1.77485e-06 -2.88606e-06 0)
(9.37691e-06 -9.41797e-06 0)
(2.31305e-05 -1.34187e-05 0)
(3.93633e-05 -1.47246e-05 0)
(5.52354e-05 -1.3957e-05 0)
(6.8754e-05 -1.16874e-05 0)
(7.83787e-05 -8.35527e-06 0)
(8.29525e-05 -4.28965e-06 0)
(8.16442e-05 2.68463e-07 0)
(7.38763e-05 5.1445e-06 0)
(5.92666e-05 1.02096e-05 0)
(3.75825e-05 1.53681e-05 0)
(8.70846e-06 2.05477e-05 0)
(-2.7379e-05 2.56933e-05 0)
(-7.06314e-05 3.07623e-05 0)
(-0.000120944 3.57217e-05 0)
(-0.000178166 4.05456e-05 0)
(-0.000242112 4.52141e-05 0)
(-0.000312567 4.97116e-05 0)
(-0.000389295 5.40259e-05 0)
(-0.00047204 5.81476e-05 0)
(-0.000560534 6.20697e-05 0)
(-0.000654497 6.57867e-05 0)
(-0.00075364 6.92947e-05 0)
(-0.00085767 7.25912e-05 0)
(-0.000966287 7.56747e-05 0)
(-0.00107919 7.85446e-05 0)
(-0.00119608 8.12009e-05 0)
(-0.00131664 8.36442e-05 0)
(-0.00144058 8.58756e-05 0)
(-0.0015676 8.78967e-05 0)
(-0.00169738 8.97096e-05 0)
(-0.00182965 9.13163e-05 0)
(-0.00196409 9.27196e-05 0)
(-0.00210043 9.39223e-05 0)
(-0.00223836 9.49274e-05 0)
(-0.00237762 9.57381e-05 0)
(-0.00251791 9.63577e-05 0)
(-0.00265897 9.67895e-05 0)
(-0.00280052 9.70372e-05 0)
(-0.0029423 9.71044e-05 0)
(-0.00308405 9.69949e-05 0)
(-0.00322552 9.67127e-05 0)
(-0.00336645 9.62615e-05 0)
(-0.00350661 9.56452e-05 0)
(-0.00364575 9.48679e-05 0)
(-0.00378365 9.39334e-05 0)
(-0.00392007 9.2846e-05 0)
(-0.0040548 9.16096e-05 0)
(-0.00418761 9.02284e-05 0)
(-0.00431832 8.87064e-05 0)
(-0.0044467 8.70479e-05 0)
(-0.00457256 8.52569e-05 0)
(-0.00469571 8.33376e-05 0)
(-0.00481598 8.12941e-05 0)
(-0.00493317 7.91307e-05 0)
(-0.00504711 7.68516e-05 0)
(-0.00515765 7.4461e-05 0)
(-0.00526461 7.1963e-05 0)
(-0.00536785 6.93619e-05 0)
(-0.00546722 6.6662e-05 0)
(-0.00556257 6.38675e-05 0)
(-0.00565377 6.09827e-05 0)
(-0.00574069 5.8012e-05 0)
(-0.00582321 5.49596e-05 0)
(-0.00590121 5.18298e-05 0)
(-0.00597458 4.8627e-05 0)
(-0.00604322 4.53556e-05 0)
(-0.00610703 4.20201e-05 0)
(-0.00616592 3.86247e-05 0)
(-0.0062198 3.51741e-05 0)
(-0.00626861 3.16727e-05 0)
(-0.00631226 2.81251e-05 0)
(-0.00635069 2.45358e-05 0)
(-0.00638385 2.09095e-05 0)
(-0.00641168 1.72508e-05 0)
(-0.00643414 1.35644e-05 0)
(-0.0064512 9.85502e-06 0)
(-0.00646283 6.12743e-06 0)
(-0.00646899 2.38646e-06 0)
(-0.00646968 -1.36303e-06 0)
(-0.00646489 -5.11614e-06 0)
(-0.00645461 -8.86793e-06 0)
(-0.00643886 -1.26134e-05 0)
(-0.00641764 -1.63474e-05 0)
(-0.00639098 -2.0065e-05 0)
(-0.00635891 -2.37609e-05 0)
(-0.00632146 -2.743e-05 0)
(-0.00627867 -3.10672e-05 0)
(-0.00623059 -3.46672e-05 0)
(-0.00617729 -3.82247e-05 0)
(-0.00611883 -4.17344e-05 0)
(-0.00605529 -4.51909e-05 0)
(-0.00598674 -4.85889e-05 0)
(-0.00591328 -5.1923e-05 0)
(-0.00583501 -5.51877e-05 0)
(-0.00575203 -5.83777e-05 0)
(-0.00566445 -6.14874e-05 0)
(-0.0055724 -6.45115e-05 0)
(-0.00547601 -6.74445e-05 0)
(-0.00537541 -7.0281e-05 0)
(-0.00527074 -7.30156e-05 0)
(-0.00516217 -7.56428e-05 0)
(-0.00504986 -7.81574e-05 0)
(-0.00493396 -8.05538e-05 0)
(-0.00481466 -8.28269e-05 0)
(-0.00469215 -8.49715e-05 0)
(-0.00456661 -8.69822e-05 0)
(-0.00443824 -8.8854e-05 0)
(-0.00430726 -9.05818e-05 0)
(-0.00417386 -9.21606e-05 0)
(-0.00403828 -9.35854e-05 0)
(-0.00390075 -9.48517e-05 0)
(-0.00376149 -9.59546e-05 0)
(-0.00362074 -9.68896e-05 0)
(-0.00347877 -9.76524e-05 0)
(-0.00333581 -9.82385e-05 0)
(-0.00319213 -9.8644e-05 0)
(-0.003048 -9.88647e-05 0)
(-0.00290368 -9.8897e-05 0)
(-0.00275945 -9.87371e-05 0)
(-0.0026156 -9.83817e-05 0)
(-0.0024724 -9.78276e-05 0)
(-0.00233015 -9.70719e-05 0)
(-0.00218914 -9.61119e-05 0)
(-0.00204967 -9.49453e-05 0)
(-0.00191204 -9.35697e-05 0)
(-0.00177655 -9.19835e-05 0)
(-0.0016435 -9.0185e-05 0)
(-0.0015132 -8.81732e-05 0)
(-0.00138596 -8.59474e-05 0)
(-0.00126209 -8.35073e-05 0)
(-0.00114188 -8.08533e-05 0)
(-0.00102565 -7.7986e-05 0)
(-0.000913695 -7.4907e-05 0)
(-0.000806316 -7.16182e-05 0)
(-0.000703806 -6.81227e-05 0)
(-0.000606454 -6.44243e-05 0)
(-0.00051454 -6.05278e-05 0)
(-0.000428334 -5.64395e-05 0)
(-0.000348097 -5.21673e-05 0)
(-0.000274073 -4.77209e-05 0)
(-0.000206488 -4.31123e-05 0)
(-0.00014555 -3.83562e-05 0)
(-9.14384e-05 -3.34708e-05 0)
(-4.43009e-05 -2.84786e-05 0)
(-4.2472e-06 -2.34077e-05 0)
(2.86617e-05 -1.82933e-05 0)
(5.4424e-05 -1.318e-05 0)
(7.31123e-05 -8.12529e-06 0)
(8.4893e-05 -3.20293e-06 0)
(9.00502e-05 1.49002e-06 0)
(8.90183e-05 5.82459e-06 0)
(8.24249e-05 9.62701e-06 0)
(7.11463e-05 1.26607e-05 0)
(5.63751e-05 1.46047e-05 0)
(3.96699e-05 1.50354e-05 0)
(2.30141e-05 1.34148e-05 0)
(9.18261e-06 9.18581e-06 0)
(1.69485e-06 2.64367e-06 0)
(2.82354e-06 -9.09752e-06 0)
(1.34016e-05 -2.3165e-05 0)
(3.1058e-05 -3.10653e-05 0)
(5.0817e-05 -3.31223e-05 0)
(6.90783e-05 -3.04362e-05 0)
(8.32827e-05 -2.4102e-05 0)
(9.13471e-05 -1.50471e-05 0)
(9.16305e-05 -4.01646e-06 0)
(8.29011e-05 8.40952e-06 0)
(6.42647e-05 2.1784e-05 0)
(3.51002e-05 3.57618e-05 0)
(-4.99319e-06 5.00766e-05 0)
(-5.62386e-05 6.4521e-05 0)
(-0.000118716 7.89332e-05 0)
(-0.000192391 9.31856e-05 0)
(-0.000277135 0.000107177 0)
(-0.000372745 0.000120828 0)
(-0.000478958 0.000134074 0)
(-0.00059546 0.000146866 0)
(-0.000721899 0.000159162 0)
(-0.00085789 0.000170933 0)
(-0.00100302 0.000182153 0)
(-0.00115687 0.000192803 0)
(-0.00131897 0.000202869 0)
(-0.00148889 0.000212341 0)
(-0.00166614 0.000221211 0)
(-0.00185026 0.000229477 0)
(-0.00204076 0.000237135 0)
(-0.00223716 0.000244186 0)
(-0.00243899 0.000250631 0)
(-0.00264576 0.000256474 0)
(-0.00285699 0.000261719 0)
(-0.0030722 0.000266372 0)
(-0.00329093 0.000270438 0)
(-0.00351271 0.000273926 0)
(-0.00373706 0.000276843 0)
(-0.00396355 0.000279197 0)
(-0.00419171 0.000280998 0)
(-0.0044211 0.000282255 0)
(-0.00465129 0.000282977 0)
(-0.00488185 0.000283175 0)
(-0.00511236 0.00028286 0)
(-0.00534241 0.000282042 0)
(-0.00557159 0.000280732 0)
(-0.0057995 0.000278942 0)
(-0.00602577 0.000276682 0)
(-0.00625001 0.000273964 0)
(-0.00647187 0.0002708 0)
(-0.00669096 0.0002672 0)
(-0.00690696 0.000263178 0)
(-0.00711952 0.000258745 0)
(-0.00732831 0.000253913 0)
(-0.007533 0.000248694 0)
(-0.0077333 0.0002431 0)
(-0.00792889 0.000237142 0)
(-0.00811948 0.000230834 0)
(-0.0083048 0.000224188 0)
(-0.00848458 0.000217215 0)
(-0.00865854 0.000209928 0)
(-0.00882645 0.000202339 0)
(-0.00898805 0.000194462 0)
(-0.00914312 0.000186308 0)
(-0.00929144 0.000177889 0)
(-0.0094328 0.000169219 0)
(-0.00956699 0.00016031 0)
(-0.00969383 0.000151175 0)
(-0.00981314 0.000141827 0)
(-0.00992475 0.000132277 0)
(-0.0100285 0.000122541 0)
(-0.0101242 0.000112629 0)
(-0.0102118 0.000102557 0)
(-0.0102911 9.23359e-05 0)
(-0.0103621 8.19801e-05 0)
(-0.0104245 7.1503e-05 0)
(-0.0104784 6.0918e-05 0)
(-0.0105236 5.02387e-05 0)
(-0.0105601 3.94789e-05 0)
(-0.0105877 2.86526e-05 0)
(-0.0106065 1.77738e-05 0)
(-0.0106165 6.85644e-06 0)
(-0.0106175 -4.08506e-06 0)
(-0.0106096 -1.50364e-05 0)
(-0.0105928 -2.59829e-05 0)
(-0.0105671 -3.69101e-05 0)
(-0.0105325 -4.78031e-05 0)
(-0.0104891 -5.86471e-05 0)
(-0.0104368 -6.9427e-05 0)
(-0.0103758 -8.01278e-05 0)
(-0.0103061 -9.07342e-05 0)
(-0.0102279 -0.000101231 0)
(-0.0101411 -0.000111603 0)
(-0.010046 -0.000121834 0)
(-0.00994255 -0.000131909 0)
(-0.00983101 -0.000141812 0)
(-0.00971149 -0.000151527 0)
(-0.00958415 -0.000161039 0)
(-0.00944915 -0.000170332 0)
(-0.0093067 -0.00017939 0)
(-0.00915698 -0.000188197 0)
(-0.00900021 -0.000196738 0)
(-0.00883661 -0.000204996 0)
(-0.00866642 -0.000212956 0)
(-0.00848989 -0.000220602 0)
(-0.00830727 -0.00022792 0)
(-0.00811885 -0.000234892 0)
(-0.00792491 -0.000241504 0)
(-0.00772576 -0.000247741 0)
(-0.00752169 -0.000253588 0)
(-0.00731305 -0.000259029 0)
(-0.00710015 -0.000264051 0)
(-0.00688335 -0.000268639 0)
(-0.00666301 -0.000272779 0)
(-0.0064395 -0.000276457 0)
(-0.00621319 -0.00027966 0)
(-0.00598448 -0.000282374 0)
(-0.00575377 -0.000284588 0)
(-0.00552147 -0.000286289 0)
(-0.005288 -0.000287466 0)
(-0.00505379 -0.000288106 0)
(-0.00481927 -0.0002882 0)
(-0.0045849 -0.000287737 0)
(-0.00435112 -0.000286708 0)
(-0.0041184 -0.000285104 0)
(-0.0038872 -0.000282917 0)
(-0.00365799 -0.00028014 0)
(-0.00343126 -0.000276767 0)
(-0.00320749 -0.000272792 0)
(-0.00298715 -0.00026821 0)
(-0.00277074 -0.000263017 0)
(-0.00255874 -0.000257213 0)
(-0.00235165 -0.000250795 0)
(-0.00214996 -0.000243765 0)
(-0.00195414 -0.000236123 0)
(-0.00176469 -0.000227874 0)
(-0.00158209 -0.000219024 0)
(-0.00140679 -0.00020958 0)
(-0.00123928 -0.000199553 0)
(-0.00107999 -0.000188956 0)
(-0.000929364 -0.000177807 0)
(-0.000787823 -0.000166126 0)
(-0.000655762 -0.000153939 0)
(-0.000533556 -0.000141277 0)
(-0.000421545 -0.00012818 0)
(-0.000320034 -0.000114693 0)
(-0.000229283 -0.000100875 0)
(-0.000149498 -8.6794e-05 0)
(-8.08182e-05 -7.25378e-05 0)
(-2.33059e-05 -5.82126e-05 0)
(2.30743e-05 -4.39511e-05 0)
(5.84762e-05 -2.99198e-05 0)
(8.31983e-05 -1.63288e-05 0)
(9.77169e-05 -3.44595e-06 0)
(0.000102727 8.38609e-06 0)
(9.91924e-05 1.87262e-05 0)
(8.8406e-05 2.7007e-05 0)
(7.20546e-05 3.25087e-05 0)
(5.22434e-05 3.43482e-05 0)
(3.15186e-05 3.15073e-05 0)
(1.34143e-05 2.30141e-05 0)
(2.7765e-06 8.7747e-06 0)
(3.20586e-06 -1.69412e-05 0)
(1.47458e-05 -3.94134e-05 0)
(3.31951e-05 -5.08359e-05 0)
(5.26904e-05 -5.25813e-05 0)
(6.91247e-05 -4.63871e-05 0)
(7.95885e-05 -3.39272e-05 0)
(8.1669e-05 -1.66614e-05 0)
(7.34169e-05 4.1984e-06 0)
(5.33258e-05 2.76716e-05 0)
(2.02683e-05 5.29759e-05 0)
(-2.65648e-05 7.94895e-05 0)
(-8.77167e-05 0.000106719 0)
(-0.00016351 0.000134273 0)
(-0.000254086 0.000161837 0)
(-0.000359434 0.000189162 0)
(-0.000479422 0.000216046 0)
(-0.000613813 0.000242328 0)
(-0.000762287 0.000267879 0)
(-0.000924457 0.000292593 0)
(-0.00109988 0.000316387 0)
(-0.00128805 0.000339194 0)
(-0.00148846 0.000360961 0)
(-0.00170054 0.000381646 0)
(-0.00192371 0.000401218 0)
(-0.00215736 0.000419652 0)
(-0.00240087 0.000436931 0)
(-0.00265363 0.000453044 0)
(-0.00291498 0.000467985 0)
(-0.0031843 0.00048175 0)
(-0.00346093 0.00049434 0)
(-0.00374424 0.000505761 0)
(-0.00403357 0.000516018 0)
(-0.00432829 0.000525121 0)
(-0.00462776 0.000533081 0)
(-0.00493135 0.00053991 0)
(-0.00523843 0.000545623 0)
(-0.00554839 0.000550235 0)
(-0.00586062 0.000553763 0)
(-0.00617451 0.000556224 0)
(-0.00648947 0.000557637 0)
(-0.00680492 0.000558022 0)
(-0.0071203 0.000557398 0)
(-0.00743503 0.000555786 0)
(-0.00774857 0.000553206 0)
(-0.00806037 0.000549681 0)
(-0.00836992 0.000545232 0)
(-0.0086767 0.000539881 0)
(-0.00898021 0.000533651 0)
(-0.00927995 0.000526564 0)
(-0.00957544 0.000518643 0)
(-0.00986623 0.000509913 0)
(-0.0101519 0.000500394 0)
(-0.0104319 0.000490113 0)
(-0.0107059 0.000479091 0)
(-0.0109735 0.000467353 0)
(-0.0112342 0.000454923 0)
(-0.0114878 0.000441825 0)
(-0.0117337 0.000428083 0)
(-0.0119717 0.000413721 0)
(-0.0122014 0.000398763 0)
(-0.0124225 0.000383235 0)
(-0.0126346 0.00036716 0)
(-0.0128375 0.000350564 0)
(-0.0130309 0.000333471 0)
(-0.0132144 0.000315907 0)
(-0.0133879 0.000297896 0)
(-0.0135511 0.000279464 0)
(-0.0137037 0.000260636 0)
(-0.0138456 0.000241438 0)
(-0.0139765 0.000221896 0)
(-0.0140963 0.000202036 0)
(-0.0142048 0.000181883 0)
(-0.0143017 0.000161465 0)
(-0.0143871 0.000140808 0)
(-0.0144607 0.000119938 0)
(-0.0145224 9.88836e-05 0)
(-0.0145722 7.76707e-05 0)
(-0.01461 5.63274e-05 0)
(-0.0146356 3.48812e-05 0)
(-0.0146491 1.33603e-05 0)
(-0.0146504 -8.20737e-06 0)
(-0.0146395 -2.97932e-05 0)
(-0.0146164 -5.13686e-05 0)
(-0.0145811 -7.29045e-05 0)
(-0.0145337 -9.43718e-05 0)
(-0.0144742 -0.000115741 0)
(-0.0144026 -0.000136983 0)
(-0.014319 -0.000158067 0)
(-0.0142236 -0.000178964 0)
(-0.0141164 -0.000199643 0)
(-0.0139976 -0.000220074 0)
(-0.0138674 -0.000240227 0)
(-0.0137258 -0.00026007 0)
(-0.0135732 -0.000279573 0)
(-0.0134096 -0.000298704 0)
(-0.0132354 -0.000317434 0)
(-0.0130507 -0.00033573 0)
(-0.0128558 -0.000353562 0)
(-0.0126509 -0.000370899 0)
(-0.0124365 -0.000387709 0)
(-0.0122127 -0.000403962 0)
(-0.0119799 -0.000419627 0)
(-0.0117385 -0.000434672 0)
(-0.0114887 -0.000449068 0)
(-0.011231 -0.000462785 0)
(-0.0109658 -0.000475792 0)
(-0.0106935 -0.000488059 0)
(-0.0104144 -0.000499557 0)
(-0.0101291 -0.000510258 0)
(-0.00983804 -0.000520132 0)
(-0.00954162 -0.000529153 0)
(-0.00924036 -0.000537292 0)
(-0.00893477 -0.000544523 0)
(-0.00862537 -0.00055082 0)
(-0.00831268 -0.000556157 0)
(-0.00799726 -0.000560511 0)
(-0.00767966 -0.000563857 0)
(-0.00736046 -0.000566174 0)
(-0.00704024 -0.000567439 0)
(-0.00671958 -0.000567632 0)
(-0.00639911 -0.000566735 0)
(-0.00607943 -0.000564728 0)
(-0.00576117 -0.000561596 0)
(-0.00544496 -0.000557324 0)
(-0.00513143 -0.000551898 0)
(-0.00482125 -0.000545307 0)
(-0.00451505 -0.00053754 0)
(-0.00421349 -0.000528591 0)
(-0.00391722 -0.000518453 0)
(-0.00362692 -0.000507123 0)
(-0.00334322 -0.000494602 0)
(-0.0030668 -0.000480891 0)
(-0.0027983 -0.000465996 0)
(-0.00253836 -0.000449926 0)
(-0.00228763 -0.000432696 0)
(-0.00204673 -0.000414323 0)
(-0.00181627 -0.00039483 0)
(-0.00159685 -0.000374248 0)
(-0.00138904 -0.000352612 0)
(-0.00119339 -0.000329967 0)
(-0.00101041 -0.000306369 0)
(-0.000840591 -0.000281882 0)
(-0.000684358 -0.000256588 0)
(-0.000542096 -0.000230582 0)
(-0.000414125 -0.000203981 0)
(-0.000300689 -0.000176927 0)
(-0.000201943 -0.000149594 0)
(-0.000117936 -0.000122191 0)
(-4.85864e-05 -9.49782e-05 0)
(6.33793e-06 -6.82748e-05 0)
(4.72545e-05 -4.24772e-05 0)
(7.48007e-05 -1.80786e-05 0)
(8.98764e-05 4.30531e-06 0)
(9.36927e-05 2.39065e-05 0)
(8.78293e-05 3.97712e-05 0)
(7.42918e-05 5.07332e-05 0)
(5.55219e-05 5.54093e-05 0)
(3.44229e-05 5.22447e-05 0)
(1.50568e-05 3.96866e-05 0)
(3.21404e-06 1.66705e-05 0)
(3.13344e-06 -2.49171e-05 0)
(1.40375e-05 -5.53541e-05 0)
(3.0651e-05 -6.91776e-05 0)
(4.67349e-05 -6.90531e-05 0)
(5.79047e-05 -5.74936e-05 0)
(6.10293e-05 -3.68008e-05 0)
(5.35004e-05 -8.98266e-06 0)
(3.31829e-05 2.42681e-05 0)
(-1.60378e-06 6.15512e-05 0)
(-5.21442e-05 0.000101722 0)
(-0.000119382 0.00014385 0)
(-0.000203969 0.000187182 0)
(-0.000306308 0.000231106 0)
(-0.000426592 0.000275129 0)
(-0.000564839 0.000318847 0)
(-0.000720915 0.000361933 0)
(-0.000894563 0.000404121 0)
(-0.00108542 0.000445195 0)
(-0.00129305 0.000484979 0)
(-0.00151691 0.00052333 0)
(-0.00175644 0.000560132 0)
(-0.00201101 0.000595293 0)
(-0.00227994 0.000628739 0)
(-0.00256253 0.000660412 0)
(-0.00285806 0.000690269 0)
(-0.00316577 0.000718277 0)
(-0.00348489 0.000744412 0)
(-0.00381466 0.00076866 0)
(-0.00415427 0.000791013 0)
(-0.00450295 0.00081147 0)
(-0.0048599 0.000830034 0)
(-0.00522431 0.000846713 0)
(-0.00559541 0.000861521 0)
(-0.0059724 0.000874472 0)
(-0.0063545 0.000885585 0)
(-0.00674093 0.000894883 0)
(-0.00713093 0.000902387 0)
(-0.00752373 0.000908125 0)
(-0.00791858 0.000912123 0)
(-0.00831475 0.000914412 0)
(-0.00871151 0.00091502 0)
(-0.00910815 0.00091398 0)
(-0.00950396 0.000911325 0)
(-0.00989826 0.000907088 0)
(-0.0102904 0.000901303 0)
(-0.0106796 0.000894005 0)
(-0.0110654 0.000885231 0)
(-0.011447 0.000875016 0)
(-0.0118239 0.000863398 0)
(-0.0121955 0.000850413 0)
(-0.0125611 0.000836099 0)
(-0.0129203 0.000820495 0)
(-0.0132724 0.000803637 0)
(-0.0136169 0.000785566 0)
(-0.0139534 0.00076632 0)
(-0.0142812 0.000745938 0)
(-0.0146 0.000724459 0)
(-0.0149092 0.000701923 0)
(-0.0152084 0.000678369 0)
(-0.0154972 0.000653838 0)
(-0.0157752 0.00062837 0)
(-0.0160419 0.000602005 0)
(-0.016297 0.000574784 0)
(-0.0165401 0.000546747 0)
(-0.0167708 0.000517936 0)
(-0.0169889 0.000488393 0)
(-0.017194 0.000458158 0)
(-0.0173859 0.000427274 0)
(-0.0175642 0.000395783 0)
(-0.0177287 0.000363727 0)
(-0.0178793 0.000331149 0)
(-0.0180155 0.000298093 0)
(-0.0181374 0.000264601 0)
(-0.0182446 0.000230717 0)
(-0.018337 0.000196486 0)
(-0.0184145 0.000161951 0)
(-0.018477 0.000127159 0)
(-0.0185244 9.21536e-05 0)
(-0.0185565 5.69808e-05 0)
(-0.0185734 2.16866e-05 0)
(-0.0185749 -1.36826e-05 0)
(-0.0185611 -4.90801e-05 0)
(-0.0185319 -8.44588e-05 0)
(-0.0184874 -0.000119771 0)
(-0.0184276 -0.000154969 0)
(-0.0183526 -0.000190004 0)
(-0.0182625 -0.000224829 0)
(-0.0181573 -0.000259393 0)
(-0.0180372 -0.000293647 0)
(-0.0179024 -0.000327543 0)
(-0.017753 -0.00036103 0)
(-0.0175891 -0.000394057 0)
(-0.0174111 -0.000426576 0)
(-0.0172191 -0.000458534 0)
(-0.0170134 -0.000489883 0)
(-0.0167943 -0.00052057 0)
(-0.016562 -0.000550545 0)
(-0.0163169 -0.000579757 0)
(-0.0160594 -0.000608155 0)
(-0.0157898 -0.00063569 0)
(-0.0155085 -0.000662309 0)
(-0.0152158 -0.000687962 0)
(-0.0149123 -0.000712601 0)
(-0.0145984 -0.000736174 0)
(-0.0142745 -0.000758632 0)
(-0.0139411 -0.000779927 0)
(-0.0135988 -0.000800011 0)
(-0.0132481 -0.000818834 0)
(-0.0128896 -0.000836351 0)
(-0.0125238 -0.000852516 0)
(-0.0121512 -0.000867282 0)
(-0.0117726 -0.000880606 0)
(-0.0113886 -0.000892444 0)
(-0.0109998 -0.000902755 0)
(-0.0106068 -0.000911498 0)
(-0.0102104 -0.000918632 0)
(-0.00981125 -0.000924121 0)
(-0.00941007 -0.000927929 0)
(-0.00900759 -0.00093002 0)
(-0.00860455 -0.000930362 0)
(-0.0082017 -0.000928926 0)
(-0.00779981 -0.000925682 0)
(-0.00739967 -0.000920604 0)
(-0.00700205 -0.00091367 0)
(-0.00660775 -0.000904858 0)
(-0.00621758 -0.000894151 0)
(-0.00583234 -0.000881535 0)
(-0.00545285 -0.000866998 0)
(-0.00507991 -0.000850534 0)
(-0.00471435 -0.000832139 0)
(-0.00435697 -0.000811815 0)
(-0.00400858 -0.000789568 0)
(-0.00366999 -0.00076541 0)
(-0.00334199 -0.00073936 0)
(-0.00302536 -0.000711442 0)
(-0.00272086 -0.000681691 0)
(-0.00242925 -0.000650147 0)
(-0.00215123 -0.000616864 0)
(-0.00188752 -0.000581905 0)
(-0.00163876 -0.000545348 0)
(-0.00140557 -0.000507288 0)
(-0.00118852 -0.000467836 0)
(-0.000988133 -0.000427129 0)
(-0.000804844 -0.00038533 0)
(-0.000639019 -0.000342634 0)
(-0.000490931 -0.000299275 0)
(-0.000360741 -0.000255536 0)
(-0.000248481 -0.00021176 0)
(-0.000154027 -0.00016836 0)
(-7.70795e-05 -0.000125841 0)
(-1.71251e-05 -8.48174e-05 0)
(2.65967e-05 -4.6041e-05 0)
(5.51341e-05 -1.04306e-05 0)
(6.9868e-05 2.08932e-05 0)
(7.25634e-05 4.65723e-05 0)
(6.54229e-05 6.49819e-05 0)
(5.1096e-05 7.42193e-05 0)
(3.2721e-05 7.21395e-05 0)
(1.4676e-05 5.64577e-05 0)
(3.20199e-06 2.48691e-05 0)
(2.77093e-06 -3.20868e-05 0)
(1.18501e-05 -6.90233e-05 0)
(2.45194e-05 -8.35732e-05 0)
(3.46209e-05 -7.96788e-05 0)
(3.77094e-05 -6.06833e-05 0)
(3.05397e-05 -2.95439e-05 0)
(1.04058e-05 1.11749e-05 0)
(-2.49221e-05 5.92962e-05 0)
(-7.72209e-05 0.000112995 0)
(-0.000147868 0.000170752 0)
(-0.000237893 0.000231315 0)
(-0.00034802 0.000293649 0)
(-0.000478706 0.000356902 0)
(-0.000630186 0.000420376 0)
(-0.000802493 0.000483493 0)
(-0.000995497 0.00054578 0)
(-0.00120892 0.000606847 0)
(-0.00144238 0.000666373 0)
(-0.00169537 0.000724095 0)
(-0.0019673 0.000779797 0)
(-0.00225753 0.000833303 0)
(-0.00256534 0.00088447 0)
(-0.00288996 0.000933182 0)
(-0.00323059 0.000979348 0)
(-0.00358639 0.0010229 0)
(-0.00395648 0.00106378 0)
(-0.00433998 0.00110195 0)
(-0.00473599 0.00113738 0)
(-0.00514358 0.00117006 0)
(-0.00556184 0.00119998 0)
(-0.00598982 0.00122714 0)
(-0.0064266 0.00125155 0)
(-0.00687125 0.00127322 0)
(-0.00732284 0.00129218 0)
(-0.00778044 0.00130845 0)
(-0.00824313 0.00132206 0)
(-0.00871002 0.00133304 0)
(-0.00918019 0.00134143 0)
(-0.00965277 0.00134726 0)
(-0.0101269 0.00135058 0)
(-0.0106016 0.00135143 0)
(-0.0110762 0.00134986 0)
(-0.0115498 0.00134591 0)
(-0.0120215 0.00133962 0)
(-0.0124906 0.00133106 0)
(-0.0129562 0.00132027 0)
(-0.0134177 0.0013073 0)
(-0.0138742 0.00129221 0)
(-0.014325 0.00127504 0)
(-0.0147695 0.00125586 0)
(-0.0152068 0.00123472 0)
(-0.0156364 0.00121167 0)
(-0.0160575 0.00118677 0)
(-0.0164696 0.00116008 0)
(-0.016872 0.00113166 0)
(-0.0172641 0.00110155 0)
(-0.0176453 0.00106983 0)
(-0.0180151 0.00103654 0)
(-0.0183729 0.00100175 0)
(-0.0187183 0.000965512 0)
(-0.0190507 0.000927892 0)
(-0.0193696 0.000888946 0)
(-0.0196746 0.000848735 0)
(-0.0199653 0.000807319 0)
(-0.0202412 0.000764758 0)
(-0.020502 0.000721115 0)
(-0.0207472 0.000676451 0)
(-0.0209766 0.000630827 0)
(-0.0211898 0.000584307 0)
(-0.0213865 0.000536953 0)
(-0.0215664 0.000488828 0)
(-0.0217293 0.000439997 0)
(-0.0218749 0.000390523 0)
(-0.022003 0.000340471 0)
(-0.0221134 0.000289907 0)
(-0.022206 0.000238897 0)
(-0.0222806 0.000187507 0)
(-0.0223371 0.000135803 0)
(-0.0223754 8.38545e-05 0)
(-0.0223954 3.17281e-05 0)
(-0.0223971 -2.05071e-05 0)
(-0.0223804 -7.2782e-05 0)
(-0.0223454 -0.000125027 0)
(-0.0222921 -0.000177171 0)
(-0.0222205 -0.000229144 0)
(-0.0221306 -0.000280875 0)
(-0.0220227 -0.000332291 0)
(-0.0218968 -0.000383321 0)
(-0.0217531 -0.000433891 0)
(-0.0215918 -0.000483928 0)
(-0.0214129 -0.000533358 0)
(-0.0212169 -0.000582109 0)
(-0.0210039 -0.000630104 0)
(-0.0207743 -0.000677271 0)
(-0.0205282 -0.000723534 0)
(-0.0202661 -0.000768819 0)
(-0.0199884 -0.00081305 0)
(-0.0196953 -0.000856153 0)
(-0.0193873 -0.000898053 0)
(-0.0190649 -0.000938675 0)
(-0.0187285 -0.000977945 0)
(-0.0183786 -0.00101579 0)
(-0.0180157 -0.00105213 0)
(-0.0176403 -0.0010869 0)
(-0.0172531 -0.00112003 0)
(-0.0168545 -0.00115144 0)
(-0.0164453 -0.00118106 0)
(-0.016026 -0.00120882 0)
(-0.0155974 -0.00123466 0)
(-0.01516 -0.0012585 0)
(-0.0147147 -0.00128028 0)
(-0.0142621 -0.00129994 0)
(-0.0138029 -0.00131741 0)
(-0.0133381 -0.00133263 0)
(-0.0128683 -0.00134554 0)
(-0.0123943 -0.00135608 0)
(-0.0119171 -0.0013642 0)
(-0.0114374 -0.00136985 0)
(-0.0109561 -0.00137298 0)
(-0.0104741 -0.00137354 0)
(-0.00999234 -0.00137148 0)
(-0.00951164 -0.00136677 0)
(-0.00903296 -0.00135937 0)
(-0.00855723 -0.00134925 0)
(-0.00808539 -0.00133638 0)
(-0.00761839 -0.00132073 0)
(-0.00715719 -0.00130229 0)
(-0.00670274 -0.00128104 0)
(-0.00625599 -0.00125697 0)
(-0.00581792 -0.00123008 0)
(-0.00538947 -0.00120038 0)
(-0.00497159 -0.00116788 0)
(-0.00456522 -0.0011326 0)
(-0.00417129 -0.00109457 0)
(-0.00379071 -0.00105384 0)
(-0.00342437 -0.00101045 0)
(-0.00307313 -0.000964471 0)
(-0.00273784 -0.000915989 0)
(-0.00241928 -0.000865101 0)
(-0.00211822 -0.000811927 0)
(-0.00183537 -0.000756612 0)
(-0.00157136 -0.000699327 0)
(-0.00132678 -0.000640276 0)
(-0.00110213 -0.000579704 0)
(-0.0008978 -0.000517901 0)
(-0.000714093 -0.000455212 0)
(-0.000551171 -0.00039205 0)
(-0.000409052 -0.000328909 0)
(-0.000287582 -0.000266381 0)
(-0.000186407 -0.000205177 0)
(-0.000104948 -0.000146151 0)
(-4.23571e-05 -9.03325e-05 0)
(2.50929e-06 -3.89583e-05 0)
(3.11379e-05 6.48784e-06 0)
(4.54028e-05 4.42376e-05 0)
(4.76144e-05 7.2202e-05 0)
(4.05366e-05 8.7947e-05 0)
(2.74428e-05 8.87017e-05 0)
(1.28165e-05 7.13835e-05 0)
(2.89805e-06 3.24359e-05 0)
(2.22635e-06 -3.78105e-05 0)
(8.62268e-06 -7.89119e-05 0)
(1.57186e-05 -9.19787e-05 0)
(1.77879e-05 -8.20898e-05 0)
(1.0512e-05 -5.33942e-05 0)
(-9.36991e-06 -9.49849e-06 0)
(-4.4581e-05 4.64835e-05 0)
(-9.73728e-05 0.000111897 0)
(-0.000169556 0.000184497 0)
(-0.000262547 0.000262391 0)
(-0.000377416 0.000343996 0)
(-0.000514925 0.000427987 0)
(-0.000675564 0.000513262 0)
(-0.000859585 0.000598902 0)
(-0.00106703 0.00068414 0)
(-0.00129777 0.000768342 0)
(-0.00155151 0.000850978 0)
(-0.00182782 0.000931609 0)
(-0.00212616 0.00100987 0)
(-0.0024459 0.00108546 0)
(-0.00278632 0.00115813 0)
(-0.00314663 0.00122768 0)
(-0.00352597 0.00129395 0)
(-0.00392346 0.00135679 0)
(-0.00433814 0.00141611 0)
(-0.00476904 0.00147182 0)
(-0.00521517 0.00152387 0)
(-0.0056755 0.0015722 0)
(-0.00614901 0.0016168 0)
(-0.00663463 0.00165765 0)
(-0.00713132 0.00169474 0)
(-0.00763802 0.00172808 0)
(-0.00815367 0.00175769 0)
(-0.0086772 0.00178359 0)
(-0.00920757 0.00180581 0)
(-0.00974372 0.0018244 0)
(-0.0102846 0.00183938 0)
(-0.0108292 0.00185081 0)
(-0.0113766 0.00185873 0)
(-0.0119256 0.00186321 0)
(-0.0124753 0.00186429 0)
(-0.0130248 0.00186205 0)
(-0.013573 0.00185653 0)
(-0.0141191 0.00184782 0)
(-0.0146621 0.00183596 0)
(-0.015201 0.00182104 0)
(-0.0157351 0.00180313 0)
(-0.0162635 0.00178228 0)
(-0.0167852 0.00175859 0)
(-0.0172995 0.00173212 0)
(-0.0178056 0.00170294 0)
(-0.0183027 0.00167114 0)
(-0.0187901 0.00163679 0)
(-0.0192669 0.00159996 0)
(-0.0197325 0.00156075 0)
(-0.0201862 0.00151921 0)
(-0.0206273 0.00147545 0)
(-0.0210552 0.00142952 0)
(-0.0214692 0.00138153 0)
(-0.0218688 0.00133154 0)
(-0.0222533 0.00127964 0)
(-0.0226223 0.00122591 0)
(-0.0229751 0.00117043 0)
(-0.0233114 0.00111329 0)
(-0.0236306 0.00105458 0)
(-0.0239322 0.000994365 0)
(-0.0242159 0.000932746 0)
(-0.0244812 0.000869804 0)
(-0.0247278 0.000805626 0)
(-0.0249552 0.000740297 0)
(-0.0251633 0.000673906 0)
(-0.0253516 0.000606542 0)
(-0.0255199 0.000538292 0)
(-0.025668 0.000469246 0)
(-0.0257957 0.000399496 0)
(-0.0259027 0.000329131 0)
(-0.0259888 0.000258244 0)
(-0.0260541 0.000186928 0)
(-0.0260982 0.000115275 0)
(-0.0261212 4.33791e-05 0)
(-0.026123 -2.8664e-05 0)
(-0.0261036 -0.000100759 0)
(-0.026063 -0.00017281 0)
(-0.0260011 -0.00024472 0)
(-0.0259181 -0.00031639 0)
(-0.0258141 -0.000387723 0)