/*--------------------------------*- C++ -*----------------------------------*\
  =========                 |
  \\      /  F ield         | OpenFOAM: The Open Source CFD Toolbox
   \\    /   O peration     | Website:  https://openfoam.org
    \\  /    A nd           | Version:  7
     \\/     M anipulation  |
\*---------------------------------------------------------------------------*/
FoamFile
{
    version     2.0;
    format      ascii;
    class       volScalarField;
    location    "0.2625";
    object      p;
}
// * * * * * * * * * * * * * * * * * * * * * * * * * * * * * * * * * * * * * //

dimensions      [0 2 -2 0 0 0 0];

internalField   nonuniform List<scalar> 
25600
(
4.53068e-06
0.000119739
0.000148991
4.06297e-05
-0.000212909
-0.000607482
-0.00113212
-0.00177229
-0.00251253
-0.00333764
-0.0042331
-0.00518528
-0.00618153
-0.00721018
-0.00826053
-0.00932276
-0.0103879
-0.0114476
-0.0124944
-0.0135214
-0.0145221
-0.0154909
-0.0164224
-0.0173118
-0.0181549
-0.0189476
-0.0196864
-0.020368
-0.0209896
-0.0215485
-0.0220425
-0.0224696
-0.0228281
-0.0231165
-0.0233334
-0.0234779
-0.0235491
-0.0235463
-0.0234691
-0.0233172
-0.0230904
-0.0227889
-0.0224127
-0.0219622
-0.0214378
-0.0208402
-0.0201701
-0.0194282
-0.0186155
-0.0177332
-0.0167822
-0.0157639
-0.0146796
-0.0135307
-0.0123189
-0.0110456
-0.00971253
-0.0083215
-0.0068743
-0.00537282
-0.00381902
-0.00221493
-0.000562639
0.0011357
0.0028779
0.00466168
0.00648476
0.00834478
0.0102393
0.012166
0.0141223
0.0161056
0.0181135
0.0201432
0.0221923
0.024258
0.0263376
0.0284285
0.0305278
0.032633
0.034741
0.0368493
0.038955
0.0410553
0.0431474
0.0452285
0.0472958
0.0493464
0.0513776
0.0533865
0.0553705
0.0573267
0.0592525
0.0611451
0.0630019
0.0648202
0.0665974
0.068331
0.0700185
0.0716575
0.0732454
0.0747801
0.0762592
0.0776805
0.079042
0.0803416
0.0815773
0.0827473
0.0838499
0.0848833
0.0858462
0.086737
0.0875544
0.0882974
0.0889648
0.0895558
0.0900696
0.0905057
0.0908635
0.0911429
0.0913438
0.0914663
0.0915106
0.0914773
0.0913671
0.0911809
0.0909197
0.0905851
0.0901785
0.0897019
0.0891574
0.0885474
0.0878746
0.087142
0.086353
0.0855112
0.0846207
0.0836859
0.0827115
0.0817028
0.0806654
0.0796056
0.0785301
0.0774459
0.0763611
0.075284
0.0742237
0.0731903
0.0721943
0.0712474
0.0703617
0.0695505
0.0688278
0.0682081
0.0677057
0.0673337
0.0671014
0.0670107
0.0670508
0.0671661
-0.00010346
8.73253e-06
1.2955e-05
-0.000108091
-0.000350321
-0.000711987
-0.00118646
-0.00176331
-0.00243063
-0.00317613
-0.0039875
-0.00485285
-0.00576094
-0.00670122
-0.00766389
-0.00863978
-0.00962044
-0.0105981
-0.0115654
-0.0125159
-0.0134433
-0.0143421
-0.0152071
-0.0160336
-0.0168175
-0.0175547
-0.0182417
-0.0188753
-0.0194526
-0.0199711
-0.0204284
-0.0208226
-0.0211518
-0.0214145
-0.0216095
-0.0217356
-0.0217919
-0.0217777
-0.0216926
-0.0215361
-0.021308
-0.0210084
-0.0206373
-0.0201949
-0.0196818
-0.0190984
-0.0184453
-0.0177233
-0.0169332
-0.0160761
-0.015153
-0.0141651
-0.0131136
-0.0119999
-0.0108256
-0.00959196
-0.00830076
-0.00695362
-0.00555229
-0.00409859
-0.0025944
-0.00104167
0.000557596
0.00220133
0.0038874
0.00561364
0.00737783
0.0091777
0.0110109
0.0128751
0.0147679
0.0166869
0.0186295
0.0205933
0.0225756
0.024574
0.0265859
0.0286085
0.0306394
0.0326757
0.0347149
0.0367542
0.038791
0.0408224
0.0428459
0.0448587
0.0468581
0.0488413
0.0508057
0.0527486
0.0546673
0.0565591
0.0584215
0.0602518
0.0620474
0.0638058
0.0655246
0.0672012
0.0688333
0.0704185
0.0719546
0.0734392
0.0748702
0.0762456
0.0775632
0.0788212
0.0800178
0.0811511
0.0822194
0.0832214
0.0841554
0.0850202
0.0858146
0.0865375
0.0871879
0.087765
0.0882682
0.0886969
0.0890508
0.0893297
0.0895336
0.0896626
0.089717
0.0896975
0.0896047
0.0894397
0.0892035
0.0888977
0.0885237
0.0880835
0.0875792
0.0870132
0.0863883
0.0857074
0.0849737
0.084191
0.0833631
0.0824944
0.0815895
0.0806535
0.079692
0.0787109
0.0777166
0.076716
0.0757166
0.0747263
0.0737537
0.072808
0.0718991
0.0710372
0.0702333
0.0694988
0.0688454
0.0682849
0.0678282
0.0674846
0.0672593
0.0671526
0.0671663
0.0672814
-0.000131333
5.03801e-06
9.23302e-06
-0.000113033
-0.000345283
-0.000684431
-0.00112497
-0.00165819
-0.00227408
-0.00296217
-0.00371176
-0.00451232
-0.00535375
-0.00622645
-0.00712136
-0.00802996
-0.00894433
-0.00985708
-0.0107613
-0.0116507
-0.0125193
-0.0133617
-0.0141729
-0.0149484
-0.015684
-0.0163759
-0.0170205
-0.0176147
-0.0181557
-0.0186408
-0.0190678
-0.0194347
-0.0197397
-0.0199812
-0.0201579
-0.0202687
-0.0203126
-0.0202889
-0.0201971
-0.0200367
-0.0198075
-0.0195095
-0.0191426
-0.0187071
-0.0182033
-0.0176317
-0.0169929
-0.0162875
-0.0155164
-0.0146805
-0.0137808
-0.0128184
-0.0117946
-0.0107105
-0.00956765
-0.00836746
-0.00711148
-0.00580131
-0.00443863
-0.0030252
-0.00156282
-5.33785e-05
0.00150118
0.00309886
0.00473761
0.00641532
0.00812984
0.00987895
0.0116604
0.013472
0.0153112
0.0171759
0.0190634
0.0209715
0.0228976
0.0248393
0.0267939
0.0287591
0.0307321
0.0327105
0.0346915
0.0366727
0.0386514
0.0406249
0.0425905
0.0445458
0.046488
0.0484145
0.0503227
0.05221
0.0540737
0.0559114
0.0577204
0.0594983
0.0612426
0.0629507
0.0646204
0.0662492
0.0678348
0.0693749
0.0708674
0.07231
0.0737007
0.0750376
0.0763185
0.0775418
0.0787055
0.0798081
0.0808479
0.0818235
0.0827334
0.0835766
0.0843517
0.0850578
0.0856941
0.0862597
0.086754
0.0871766
0.0875272
0.0878056
0.0880119
0.0881463
0.0882091
0.088201
0.0881227
0.0879751
0.0877596
0.0874774
0.0871302
0.08672
0.0862487
0.0857188
0.0851331
0.0844943
0.0838057
0.083071
0.0822939
0.0814786
0.0806298
0.0797523
0.0788515
0.0779331
0.0770033
0.0760686
0.0751362
0.0742135
0.0733086
0.0724301
0.0715869
0.0707885
0.0700447
0.0693656
0.0687614
0.0682419
0.0678165
0.0674928
0.0672752
0.0671658
0.0671799
0.0673217
-2.31975e-05
0.000126327
0.00013204
9.85078e-06
-0.00021645
-0.000541785
-0.000960456
-0.00146429
-0.00204427
-0.00269099
-0.00339489
-0.00414653
-0.00493676
-0.00575675
-0.00659815
-0.00745303
-0.00831396
-0.00917397
-0.0100265
-0.0108655
-0.0116853
-0.0124807
-0.0132469
-0.0139795
-0.0146744
-0.0153279
-0.0159365
-0.0164972
-0.017007
-0.0174636
-0.0178646
-0.0182081
-0.0184922
-0.0187153
-0.0188762
-0.0189738
-0.019007
-0.018975
-0.0188774
-0.0187137
-0.0184835
-0.0181869
-0.0178237
-0.0173942
-0.0168986
-0.0163374
-0.0157111
-0.0150204
-0.014266
-0.0134488
-0.0125697
-0.0116297
-0.0106302
-0.00957223
-0.00845719
-0.00728649
-0.0060616
-0.00478406
-0.00345551
-0.00207764
-0.000652203
0.000818978
0.00233402
0.003891
0.00548791
0.00712271
0.00879329
0.0104975
0.0122332
0.0139982
0.0157901
0.0176067
0.0194456
0.0213044
0.0231808
0.0250723
0.0269764
0.0288907
0.0308127
0.0327398
0.0346695
0.0365993
0.0385266
0.0404489
0.0423636
0.0442681
0.0461598
0.0480363
0.0498949
0.0517331
0.0535485
0.0553384
0.0571005
0.0588322
0.0605312
0.0621951
0.0638216
0.0654083
0.066953
0.0684535
0.0699077
0.0713135
0.0726689
0.0739719
0.0752206
0.0764134
0.0775484
0.078624
0.0796388
0.0805913
0.0814803
0.0823044
0.0830627
0.0837542
0.0843781
0.0849335
0.0854201
0.0858374
0.086185
0.086463
0.0866714
0.0868104
0.0868804
0.086882
0.0868161
0.0866836
0.0864857
0.0862238
0.0858996
0.0855149
0.0850718
0.0845726
0.0840201
0.083417
0.0827666
0.0820723
0.0813378
0.0805674
0.0797653
0.0789364
0.0780858
0.0772189
0.0763418
0.0754606
0.0745821
0.0737133
0.0728619
0.0720357
0.0712431
0.0704927
0.0697935
0.0691545
0.0685848
0.0680933
0.0676884
0.0673774
0.0671652
0.0670559
0.0670731
0.0672318
0.000229714
0.000368788
0.000364938
0.000236874
1.0506e-05
-0.000307869
-0.000712304
-0.00119499
-0.0017476
-0.00236159
-0.00302838
-0.00373944
-0.00448643
-0.00526131
-0.00605635
-0.00686422
-0.00767798
-0.00849105
-0.00929728
-0.0100909
-0.0108665
-0.0116191
-0.0123442
-0.0130374
-0.0136949
-0.0143129
-0.0148882
-0.0154177
-0.0158987
-0.0163286
-0.0167054
-0.0170269
-0.0172914
-0.0174973
-0.0176434
-0.0177285
-0.0177516
-0.017712
-0.0176089
-0.0174421
-0.0172111
-0.0169158
-0.0165562
-0.0161324
-0.0156448
-0.0150936
-0.0144794
-0.0138027
-0.0130643
-0.012265
-0.0114056
-0.0104873
-0.00951113
-0.00847824
-0.00738994
-0.00624758
-0.00505258
-0.00380642
-0.00251069
-0.00116703
0.000222875
0.00165724
0.00313426
0.00465206
0.0062087
0.00780219
0.0094305
0.0110915
0.0127832
0.0145033
0.0162496
0.01802
0.019812
0.0216235
0.023452
0.0252951
0.0271506
0.029016
0.0308888
0.0327666
0.034647
0.0365274
0.0384054
0.0402784
0.0421441
0.0439998
0.0458431
0.0476715
0.0494825
0.0512736
0.0530425
0.0547866
0.0565036
0.058191
0.0598467
0.0614681
0.0630532
0.0645996
0.0661052
0.0675678
0.0689853
0.0703558
0.0716774
0.072948
0.074166
0.0753296
0.0764371
0.0774871
0.078478
0.0794084
0.0802773
0.0810833
0.0818256
0.0825031
0.0831151
0.0836609
0.08414
0.0845521
0.0848969
0.0851744
0.0853846
0.0855278
0.0856045
0.0856153
0.0855609
0.0854424
0.085261
0.0850181
0.0847152
0.0843542
0.0839372
0.0834666
0.0829448
0.0823747
0.0817594
0.0811023
0.080407
0.0796774
0.078918
0.0781331
0.0773278
0.0765073
0.0756773
0.0748436
0.0740127
0.0731911
0.0723859
0.0716046
0.0708548
0.0701443
0.0694814
0.0688742
0.068331
0.0678598
0.0674685
0.0671641
0.0669522
0.0668381
0.066848
0.0670008
0.000623622
0.000730871
0.000705033
0.00056319
0.000329493
1.07173e-05
-0.000387059
-0.000856412
-0.00138965
-0.00197903
-0.00261675
-0.00329509
-0.00400647
-0.00474351
-0.00549915
-0.00626659
-0.00703935
-0.00781129
-0.00857659
-0.00932983
-0.0100659
-0.0107802
-0.0114681
-0.0121257
-0.0127491
-0.0133347
-0.0138795
-0.0143804
-0.0148348
-0.0152402
-0.0155945
-0.0158956
-0.016142
-0.016332
-0.0164644
-0.0165379
-0.0165516
-0.0165048
-0.0163968
-0.0162271
-0.0159954
-0.0157015
-0.0153455
-0.0149273
-0.0144472
-0.0139056
-0.0133029
-0.0126396
-0.0119165
-0.0111343
-0.0102939
-0.00939618
-0.00844229
-0.00743335
-0.0063706
-0.00525532
-0.00408889
-0.00287274
-0.00160839
-0.000297432
0.00105849
0.00245765
0.00389829
0.00537861
0.00689672
0.00845069
0.0100386
0.0116583
0.0133078
0.014985
0.0166877
0.0184138
0.020161
0.0219271
0.0237098
0.0255068
0.0273158
0.0291344
0.0309602
0.0327909
0.0346241
0.0364573
0.0382881
0.0401141
0.0419329
0.043742
0.045539
0.0473215
0.0490871
0.0508333
0.0525578
0.0542583
0.0559323
0.0575775
0.0591918
0.0607729
0.0623185
0.0638265
0.0652948
0.0667213
0.068104
0.069441
0.0707303
0.0719702
0.073159
0.0742948
0.0753763
0.0764018
0.07737
0.0782796
0.0791293
0.0799182
0.0806452
0.0813094
0.0819101
0.0824467
0.0829187
0.0833258
0.0836678
0.0839447
0.0841565
0.0843036
0.0843864
0.0844056
0.0843619
0.0842563
0.0840901
0.0838645
0.0835813
0.0832422
0.0828492
0.0824047
0.0819111
0.0813711
0.0807879
0.0801645
0.0795047
0.0788121
0.0780909
0.0773456
0.0765807
0.0758013
0.0750128
0.0742208
0.0734311
0.0726501
0.0718843
0.0711406
0.070426
0.0697478
0.0691134
0.0685303
0.068006
0.0675478
0.067163
0.0668586
0.0666402
0.0665139
0.0665047
0.0666305
0.00114796
0.00120642
0.00114723
0.000983408
0.000734804
0.000408183
9.59958e-06
-0.000454007
-0.000975597
-0.00154813
-0.00216452
-0.00281775
-0.00350091
-0.00420729
-0.00493039
-0.00566394
-0.00640191
-0.00713855
-0.00786845
-0.00858649
-0.00928791
-0.00996822
-0.0106232
-0.011249
-0.0118418
-0.0123984
-0.0129156
-0.0133906
-0.0138209
-0.014204
-0.0145378
-0.0148205
-0.0150503
-0.0152257
-0.0153455
-0.0154084
-0.0154137
-0.0153603
-0.0152478
-0.0150756
-0.0148434
-0.014551
-0.0141983
-0.0137855
-0.0133127
-0.0127801
-0.0121884
-0.0115379
-0.0108293
-0.0100633
-0.00924078
-0.00836264
-0.00742991
-0.00644369
-0.00540516
-0.00431556
-0.00317623
-0.00198853
-0.000753953
0.000525978
0.00184966
0.00321542
0.00462155
0.0060663
0.00754785
0.00906432
0.0106138
0.0121943
0.0138038
0.0154403
0.0171016
0.0187857
0.0204904
0.0222135
0.0239527
0.0257059
0.0274708
0.029245
0.0310263
0.0328123
0.0346007
0.0363892
0.0381753
0.0399568
0.0417312
0.0434962
0.0452494
0.0469884
0.048711
0.0504147
0.0520972
0.0537564
0.0553897
0.0569951
0.0585704
0.0601132
0.0616216
0.0630933
0.0645264
0.0659189
0.0672687
0.0685741
0.0698331
0.071044
0.0722051
0.0733149
0.0743718
0.0753743
0.0763211
0.077211
0.0780428
0.0788154
0.079528
0.0801797
0.0807697
0.0812976
0.0817629
0.0821652
0.0825045
0.0827806
0.0829938
0.0831443
0.0832326
0.0832593
0.0832253
0.0831314
0.082979
0.0827693
0.0825039
0.0821846
0.0818134
0.0813925
0.0809242
0.0804114
0.0798569
0.0792638
0.0786355
0.0779758
0.0772885
0.0765779
0.0758484
0.0751048
0.0743522
0.0735957
0.072841
0.072094
0.0713607
0.0706475
0.0699609
0.0693074
0.0686941
0.0681276
0.0676148
0.0671624
0.0667772
0.0664658
0.0662338
0.0660874
0.0660481
0.0661299
0.00178891
0.00178561
0.00168329
0.00148975
0.00121902
0.000877569
0.000471248
6.40225e-06
-0.000510584
-0.00107332
-0.0016754
-0.00231043
-0.00297214
-0.00365443
-0.00435131
-0.00505701
-0.00576594
-0.00647275
-0.00717241
-0.00786013
-0.00853143
-0.00918207
-0.00980806
-0.0104057
-0.0109714
-0.011502
-0.0119946
-0.0124463
-0.0128548
-0.0132178
-0.0135332
-0.013799
-0.0140138
-0.014176
-0.0142844
-0.0143378
-0.0143353
-0.014276
-0.0141595
-0.0139852
-0.0137527
-0.0134618
-0.0131125
-0.0127048
-0.012239
-0.0117151
-0.0111338
-0.0104954
-0.00980054
-0.00904996
-0.00824443
-0.00738483
-0.00647215
-0.00550745
-0.00449188
-0.00342663
-0.00231297
-0.00115225
5.4117e-05
0.00130463
0.00259775
0.00393184
0.00530527
0.0067163
0.00816318
0.0096441
0.0111572
0.0127005
0.0142721
0.0158699
0.017492
0.0191363
0.0208007
0.022483
0.0241811
0.0258928
0.0276158
0.029348
0.0310871
0.0328308
0.0345768
0.0363229
0.0380668
0.039806
0.0415384
0.0432617
0.0449734
0.0466714
0.0483533
0.0500168
0.0516598
0.0532798
0.0548748
0.0564426
0.0579809
0.0594877
0.060961
0.0623985
0.0637985
0.0651588
0.0664777
0.0677532
0.0689836
0.0701673
0.0713025
0.0723877
0.0734214
0.0744023
0.075329
0.0762003
0.0770152
0.0777726
0.0784716
0.0791114
0.0796914
0.080211
0.0806698
0.0810676
0.0814041
0.0816794
0.0818936
0.0820471
0.0821402
0.0821738
0.0821484
0.0820651
0.0819251
0.0817297
0.0814803
0.0811789
0.0808272
0.0804275
0.079982
0.0794934
0.0789645
0.0783982
0.0777979
0.0771671
0.0765095
0.0758291
0.0751303
0.0744174
0.0736953
0.0729689
0.0722433
0.0715242
0.0708171
0.0701279
0.0694625
0.0688271
0.0682279
0.0676712
0.0671631
0.0667099
0.0663177
0.0659925
0.06574
0.0655661
0.0654869
0.0655117
0.00253185
0.0024572
0.00230383
0.00207376
0.00177443
0.00141179
0.000991418
0.000518983
2.19548e-07
-0.000559103
-0.0011532
-0.0017763
-0.00242274
-0.00308692
-0.00376338
-0.00444679
-0.00513199
-0.00581406
-0.00648829
-0.00715025
-0.00779572
-0.0084207
-0.00902143
-0.00959436
-0.0101362
-0.0106438
-0.0111145
-0.0115456
-0.0119347
-0.0122796
-0.0125783
-0.0128291
-0.0130304
-0.0131807
-0.0132787
-0.0133235
-0.0133141
-0.0132497
-0.0131297
-0.0129535
-0.012721
-0.0124317
-0.0120858
-0.0116831
-0.0112239
-0.0107084
-0.0101369
-0.00951003
-0.00882826
-0.00809229
-0.00730286
-0.00646085
-0.00556717
-0.00462287
-0.00362904
-0.00258684
-0.0014975
-0.000362326
0.000817309
0.00203996
0.00330412
0.00460822
0.00595066
0.00732975
0.0087438
0.010191
0.0116696
0.0131777
0.0147133
0.0162746
0.0178596
0.0194662
0.0210924
0.0227361
0.0243952
0.0260675
0.027751
0.0294434
0.0311425
0.0328462
0.0345522
0.0362582
0.0379621
0.0396615
0.0413542
0.043038
0.0447106
0.0463697
0.0480132
0.0496388
0.0512443
0.0528276
0.0543864
0.0559186
0.0574222
0.0588951
0.0603352
0.0617405
0.0631092
0.0644393
0.065729
0.0669765
0.06818
0.069338
0.0704488
0.0715109
0.0725229
0.0734834
0.0743912
0.0752451
0.0760441
0.0767871
0.0774733
0.0781019
0.0786724
0.0791842
0.0796369
0.0800302
0.080364
0.0806383
0.0808533
0.0810092
0.0811067
0.0811462
0.0811286
0.0810547
0.0809258
0.0807432
0.0805082
0.0802227
0.0798885
0.0795076
0.0790823
0.0786152
0.0781088
0.0775662
0.0769903
0.0763847
0.0757529
0.0750986
0.0744259
0.073739
0.0730425
0.0723409
0.0716391
0.0709422
0.0702555
0.0695843
0.0689342
0.0683106
0.0677194
0.0671661
0.0666566
0.0661964
0.065791
0.065446
0.0651666
0.0649586
0.0648316
0.0647897
0.00336251
0.00320967
0.00299908
0.00272683
0.00239324
0.00200376
0.00156367
0.00107794
0.000551646
-1.00332e-05
-0.000601909
-0.0012188
-0.00185558
-0.00250715
-0.0031685
-0.00383475
-0.00450117
-0.00516321
-0.00581654
-0.00645702
-0.00708069
-0.00768381
-0.00826283
-0.00881441
-0.00933544
-0.00982301
-0.0102744
-0.0106872
-0.0110591
-0.011388
-0.011672
-0.0119093
-0.0120985
-0.0122382
-0.0123271
-0.0123643
-0.0123487
-0.0122798
-0.0121567
-0.0119792
-0.0117468
-0.0114593
-0.0111166
-0.0107188
-0.010266
-0.00975846
-0.00919647
-0.00858052
-0.00791116
-0.00718903
-0.00641487
-0.0055895
-0.00471381
-0.00378881
-0.00281555
-0.00179515
-0.000728822
0.000382186
0.00153654
0.00273283
0.0039696
0.00524534
0.00655846
0.00790735
0.00929034
0.0107057
0.0121517
0.0136264
0.0151281
0.0166548
0.0182047
0.0197756
0.0213657
0.0229729
0.0245952
0.0262304
0.0278765
0.0295313
0.0311927
0.0328585
0.0345267
0.0361949
0.0378609
0.0395227
0.041178
0.0428246
0.0444602
0.0460828
0.0476901
0.04928
0.0508502
0.0523988
0.0539235
0.0554223
0.0568932
0.0583341
0.0597431
0.0611182
0.0624575
0.0637592
0.0650215
0.0662426
0.0674209
0.0685548
0.0696427
0.0706831
0.0716747
0.0726161
0.0735062
0.0743437
0.0751277
0.0758572
0.0765314
0.0771495
0.077711
0.0782153
0.0786621
0.0790511
0.0793822
0.0796554
0.0798709
0.0800289
0.08013
0.0801748
0.080164
0.0800985
0.0799794
0.0798081
0.0795859
0.0793145
0.0789956
0.0786314
0.0782239
0.0777755
0.0772888
0.0767667
0.0762121
0.0756281
0.0750182
0.074386
0.0737353
0.07307
0.0723944
0.0717128
0.0710297
0.0703499
0.0696782
0.0690196
0.0683791
0.0677618
0.0671729
0.0666175
0.0661009
0.065628
0.0652039
0.0648335
0.0645217
0.0642739
0.0640929
0.0639771
0.00426754
0.00403177
0.00375935
0.00344029
0.00306765
0.00264642
0.00218159
0.00167748
0.00113852
0.000569281
-2.55941e-05
-0.000641465
-0.00127369
-0.00191764
-0.00256876
-0.00322258
-0.00387479
-0.00452121
-0.00515785
-0.00578085
-0.00638652
-0.00697135
-0.00753202
-0.00806541
-0.00856858
-0.00903879
-0.00947351
-0.00987037
-0.0102272
-0.010542
-0.010813
-0.0110384
-0.011217
-0.0113473
-0.0114282
-0.0114586
-0.0114378
-0.0113649
-0.0112394
-0.0110608
-0.0108288
-0.0105431
-0.0102038
-0.00981073
-0.00936412
-0.00886416
-0.00831119
-0.00770564
-0.00704804
-0.00633903
-0.00557932
-0.00476969
-0.00391102
-0.00300425
-0.00205043
-0.00105063
-6.02735e-06
0.00108216
0.00221264
0.00338404
0.00459495
0.0058439
0.00712935
0.00844972
0.00980339
0.0111887
0.0126039
0.0140472
0.0155168
0.0170109
0.0185275
0.0200649
0.0216209
0.0231937
0.0247811
0.0263813
0.0279921
0.0296115
0.0312374
0.0328676
0.0345
0.0361326
0.0377631
0.0393895
0.0410095
0.042621
0.0442219
0.0458101
0.0473834
0.0489396
0.0504768
0.0519927
0.0534854
0.0549528
0.056393
0.0578039
0.0591837
0.0605304
0.0618422
0.0631173
0.0643539
0.0655503
0.066705
0.0678163
0.0688827
0.0699028
0.0708753
0.0717989
0.0726723
0.0734945
0.0742645
0.0749813
0.0756442
0.0762525
0.0768054
0.0773027
0.0777439
0.0781287
0.0784571
0.078729
0.0789447
0.0791044
0.0792086
0.0792579
0.079253
0.0791948
0.0790843
0.0789229
0.0787119
0.0784528
0.0781474
0.0777976
0.0774055
0.0769734
0.0765037
0.0759992
0.0754626
0.0748969
0.0743055
0.0736916
0.0730589
0.0724111
0.0717521
0.071086
0.0704169
0.0697493
0.0690877
0.0684367
0.0678007
0.0671846
0.0665928
0.0660303
0.0655015
0.065011
0.0645633
0.0641625
0.0638136
0.0635212
0.0632814
0.0630868
0.00523463
0.00491282
0.00457514
0.00420561
0.00378993
0.00333275
0.00283885
0.00231188
0.00175566
0.00117422
0.000571662
-4.78561e-05
-0.000680145
-0.00132102
-0.00196636
-0.00261212
-0.00325435
-0.00388924
-0.00451309
-0.00512233
-0.00571354
-0.00628343
-0.00682893
-0.0073471
-0.0078352
-0.00829066
-0.00871107
-0.00909421
-0.00943803
-0.00974063
-0.0100003
-0.0102155
-0.0103848
-0.0105069
-0.0105808
-0.0106054
-0.01058
-0.0105039
-0.0103764
-0.0101971
-0.00996571
-0.00968204
-0.00934599
-0.00895759
-0.00851695
-0.00802428
-0.0074799
-0.00688423
-0.00623779
-0.0055412
-0.00479514
-0.00400038
-0.00315777
-0.00226822
-0.00133273
-0.000352364
0.000671755
0.00173843
0.00284641
0.00399435
0.00518089
0.00640459
0.00766396
0.00895746
0.0102835
0.0116405
0.0130266
0.0144403
0.0158797
0.0173431
0.0188285
0.0203342
0.0218581
0.0233985
0.0249532
0.0265204
0.0280981
0.0296841
0.0312765
0.0328732
0.0344721
0.0360712
0.0376683
0.0392613
0.0408482
0.0424269
0.0439952
0.045551
0.0470924
0.0486171
0.0501232
0.0516086
0.0530713
0.0545093
0.0559207
0.0573035
0.058656
0.0599761
0.0612621
0.0625123
0.0637249
0.0648983
0.0660309
0.0671211
0.0681675
0.0691687
0.0701233
0.0710301
0.0718881
0.0726959
0.0734528
0.0741579
0.0748102
0.0754091
0.0759541
0.0764446
0.0768804
0.0772612
0.0775869
0.0778574
0.078073
0.078234
0.0783407
0.0783938
0.078394
0.078342
0.078239
0.0780862
0.0778848
0.0776364
0.0773426
0.0770052
0.0766263
0.0762081
0.0757528
0.075263
0.0747415
0.074191
0.0736146
0.0730155
0.0723971
0.0717629
0.0711165
0.0704617
0.0698025
0.0691427
0.0684867
0.0678385
0.0672025
0.0665828
0.0659836
0.0654092
0.0648637
0.0643512
0.0638755
0.0634404
0.0630502
0.0627096
0.0624075
0.0621307
0.00625252
0.00584277
0.00543739
0.00501451
0.00455258
0.00405594
0.00352922
0.00297549
0.00239798
0.0018002
0.00118578
0.000558441
-7.80798e-05
-0.00072002
-0.00136366
-0.00200535
-0.00264149
-0.00326861
-0.00388329
-0.00448224
-0.00506228
-0.00562038
-0.00615367
-0.00665944
-0.0071351
-0.00757826
-0.00798666
-0.00835821
-0.00869096
-0.00898316
-0.00923316
-0.0094395
-0.00960083
-0.00971598
-0.00978389
-0.00980364
-0.00977443
-0.00969559
-0.00956657
-0.00938697
-0.00915648
-0.0088749
-0.00854217
-0.00815831
-0.00772342
-0.00723773
-0.00670153
-0.00611524
-0.00547938
-0.00479453
-0.00406137
-0.00328063
-0.00245315
-0.00157981
-0.000661592
0.000300487
0.00130533
0.00235177
0.00343857
0.00456446
0.00572808
0.00692804
0.00816288
0.00943111
0.0107312
0.0120615
0.0134204
0.0148062
0.0162173
0.0176517
0.0191078
0.0205837
0.0220776
0.0235875
0.0251115
0.0266477
0.0281942
0.029749
0.03131
0.0328752
0.0344427
0.0360103
0.0375761
0.0391379
0.0406938
0.0422417
0.0437794
0.045305
0.0468165
0.0483117
0.0497887
0.0512456
0.0526802
0.0540908
0.0554753
0.056832
0.0581589
0.0594543
0.0607163
0.0619432
0.0631335
0.0642854
0.0653974
0.066468
0.0674957
0.0684793
0.0694173
0.0703086
0.071152
0.0719466
0.0726913
0.0733852
0.0740276
0.0746179
0.0751553
0.0756395
0.0760702
0.0764471
0.0767701
0.0770391
0.0772544
0.0774162
0.077525
0.0775812
0.0775856
0.0775389
0.0774423
0.0772967
0.0771035
0.0768641
0.0765801
0.0762533
0.0758855
0.0754788
0.0750355
0.0745579
0.0740486
0.0735103
0.0729459
0.0723583
0.0717507
0.0711265
0.070489
0.0698417
0.0691882
0.0685322
0.0678776
0.0672281
0.0665878
0.0659603
0.0653495
0.0647592
0.0641931
0.0636547
0.0631473
0.0626741
0.0622395
0.0618476
0.0614806
0.0611196
0.0073109
0.00681222
0.00633752
0.00585912
0.00534836
0.00480935
0.00424665
0.00366278
0.00306044
0.00244269
0.00181273
0.00117383
0.000529326
-0.000117425
-0.00076309
-0.00140437
-0.002038
-0.0026608
-0.00326964
-0.0038615
-0.00443344
-0.00498268
-0.00550656
-0.00600255
-0.00646826
-0.00690144
-0.00729999
-0.00766195
-0.00798551
-0.008269
-0.00851089
-0.00870979
-0.00886444
-0.00897372
-0.00903664
-0.00905232
-0.00902001
-0.00893908
-0.00880903
-0.00862945
-0.00840007
-0.00812071
-0.00779131
-0.00741188
-0.00698255
-0.00650353
-0.00597512
-0.00539774
-0.00477188
-0.00409811
-0.00337711
-0.00260958
-0.00179633
-0.000938228
-3.62265e-05
0.000908676
0.00189541
0.00292285
0.0039898
0.00509498
0.0062371
0.00741479
0.00862663
0.00987116
0.0111469
0.0124522
0.0137856
0.0151453
0.0165297
0.0179371
0.0193657
0.0208137
0.0222793
0.0237607
0.025256
0.0267632
0.0282805
0.029806
0.0313376
0.0328734
0.0344115
0.0359498
0.0374862
0.0390189
0.0405458
0.0420649
0.0435741
0.0450715
0.0465551
0.0480228
0.0494728
0.050903
0.0523115
0.0536965
0.0550561
0.0563883
0.0576915
0.0589639
0.0602036
0.061409
0.0625784
0.0637104
0.0648033
0.0658557
0.0668661
0.0678333
0.0687559
0.0696328
0.0704628
0.071245
0.0719783
0.072662
0.0732952
0.0738773
0.0744077
0.074886
0.0753118
0.0756849
0.0760052
0.0762726
0.0764874
0.0766497
0.07676
0.0768187
0.0768266
0.0767843
0.0766929
0.0765534
0.076367
0.0761352
0.0758593
0.0755411
0.0751824
0.0747851
0.0743514
0.0738836
0.0733839
0.0728551
0.0722996
0.0717204
0.0711205
0.0705029
0.0698708
0.0692274
0.0685761
0.0679202
0.0672632
0.0666087
0.0659602
0.0653211
0.064695
0.0640851
0.0634947
0.062927
0.0623848
0.0618706
0.0613889
0.0609436
0.06051
0.0600635
0.00840036
0.00781248
0.00726744
0.00673195
0.00617034
0.00558659
0.00498525
0.00436836
0.00373815
0.00309727
0.0024485
0.00179471
0.00113885
0.000483891
-0.000167172
-0.000811368
-0.00144574
-0.00206739
-0.00267346
-0.00326119
-0.00382789
-0.00437099
-0.00488806
-0.00537674
-0.00583482
-0.0062602
-0.00665094
-0.00700522
-0.00732133
-0.00759773
-0.00783299
-0.00802579
-0.00817496
-0.00827945
-0.00833831
-0.00835073
-0.00831601
-0.00823355
-0.0081029
-0.00792368
-0.00769564
-0.0074186
-0.00709253
-0.00671745
-0.00629347
-0.00582083
-0.00529983
-0.00473088
-0.00411446
-0.00345114
-0.00274157
-0.00198644
-0.00118654
-0.000342735
0.000544068
0.00147288
0.00244267
0.00345232
0.00450067
0.00558649
0.00670849
0.00786534
0.00905566
0.010278
0.011531
0.0128129
0.0141224
0.0154577
0.0168172
0.0181993
0.0196022
0.0210242
0.0224634
0.0239182
0.0253866
0.0268668
0.0283569
0.029855
0.0313593
0.0328677
0.0343783
0.0358892
0.0373984
0.0389039
0.0404038
0.0418961
0.0433788
0.04485
0.0463076
0.0477498
0.0491746
0.0505801
0.0519644
0.0533257
0.054662
0.0559717
0.0572529
0.0585039
0.059723
0.0609084
0.0620587
0.0631722
0.0642475
0.065283
0.0662775
0.0672296
0.068138
0.0690015
0.0698192
0.0705899
0.0713128
0.0719869
0.0726116
0.0731861
0.0737099
0.0741827
0.0746039
0.0749733
0.075291
0.0755567
0.0757707
0.0759332
0.0760445
0.0761052
0.0761157
0.076077
0.0759898
0.0758553
0.0756744
0.0754486
0.0751793
0.0748681
0.0745166
0.0741267
0.0737004
0.07324
0.0727475
0.0722255
0.0716763
0.0711027
0.0705074
0.0698933
0.0692634
0.0686207
0.0679681
0.0673089
0.0666461
0.0659831
0.065323
0.064669
0.0640241
0.0633914
0.0627737
0.0621738
0.061594
0.0610365
0.0605056
0.0600052
0.0595038
0.0589714
0.0095124
0.00883552
0.00821965
0.00762596
0.00701194
0.00638155
0.00573938
0.00508705
0.00442636
0.00375958
0.00308913
0.00241748
0.00174724
0.00108103
0.00042152
-0.000228608
-0.000866688
-0.00149008
-0.00209621
-0.00268254
-0.00324663
-0.00378613
-0.00429879
-0.00478246
-0.00523508
-0.00565472
-0.00603957
-0.00638794
-0.00669827
-0.00696911
-0.00719912
-0.0073871
-0.00753193
-0.00763262
-0.00768832
-0.00769824
-0.00766176
-0.00757831
-0.00744748
-0.00726893
-0.00704242
-0.00676782
-0.00644507
-0.00607423
-0.00565542
-0.00518888
-0.0046749
-0.00411391
-0.00350639
-0.00285289
-0.00215404
-0.00141054
-0.000623137
0.000207314
0.00107992
0.00199371
0.00294767
0.00394072
0.00497172
0.00603947
0.00714271
0.00828013
0.0094504
0.0106521
0.0118838
0.013144
0.0144312
0.0157438
0.0170801
0.0184386
0.0198176
0.0212153
0.02263
0.02406
0.0255034
0.0269584
0.0284232
0.029896
0.0313747
0.0328576
0.0343428
0.0358283
0.0373121
0.0387925
0.0402674
0.0417348
0.043193
0.0446398
0.0460735
0.047492
0.0488936
0.0502762
0.0516381
0.0529775
0.0542924
0.0555813
0.0568422
0.0580735
0.0592736
0.0604407
0.0615733
0.0626698
0.0637289
0.0647489
0.0657287
0.0666669
0.0675623
0.0684136
0.0692199
0.0699801
0.0706933
0.0713587
0.0719755
0.072543
0.0730607
0.0735282
0.0739451
0.0743111
0.0746262
0.0748901
0.0751032
0.0752655
0.0753775
0.0754395
0.0754521
0.0754161
0.0753322
0.0752015
0.075025
0.074804
0.0745397
0.0742338
0.0738877
0.0735033
0.0730825
0.0726272
0.0721396
0.071622
0.0710766
0.0705059
0.0699125
0.0692991
0.0686684
0.0680232
0.0673663
0.0667007
0.0660291
0.0653544
0.0646797
0.0640077
0.0633411
0.0626828
0.0620351
0.0614005
0.0607809
0.060178
0.0595963
0.0590396
0.0584698
0.0578515
0.0106393
0.00987396
0.00918714
0.00853453
0.00786697
0.00718845
0.00650367
0.00581387
0.00512048
0.00442541
0.00373073
0.0030386
0.00235127
0.00167108
0.00100039
0.000341612
-0.00030286
-0.000930644
-0.00153941
-0.00212685
-0.00269077
-0.003229
-0.00373951
-0.00422029
-0.00466948
-0.00508528
-0.00546604
-0.00581019
-0.00611629
-0.00638301
-0.0066091
-0.00679343
-0.00693498
-0.00703284
-0.00708621
-0.00709437
-0.00705673
-0.0069728
-0.00684219
-0.0066646
-0.00643981
-0.00616772
-0.00584829
-0.00548158
-0.00506774
-0.00460699
-0.00409968
-0.00354619
-0.00294703
-0.00230273
-0.00161391
-0.000881257
-0.000105515
0.00071249
0.00157187
0.00247168
0.00341092
0.00438853
0.00540341
0.00645436
0.00754017
0.00865955
0.00981117
0.0109937
0.0122057
0.0134457
0.0147122
0.0160036
0.0173185
0.0186551
0.0200119
0.0213871
0.0227791
0.0241861
0.0256063
0.027038
0.0284794
0.0299286
0.0313838
0.0328431
0.0343047
0.0357667
0.0372272
0.0386843
0.0401361
0.0415806
0.0430161
0.0444405
0.0458521
0.0472488
0.048629
0.0499906
0.0513319
0.0526511
0.0539465
0.0552162
0.0564585
0.0576718
0.0588544
0.0600047
0.0611211
0.0622022
0.0632464
0.0642523
0.0652187
0.0661442
0.0670277
0.0678679
0.0686638
0.0694144
0.0701188
0.0707761
0.0713857
0.0719468
0.072459
0.0729216
0.0733345
0.0736972
0.0740097
0.0742719
0.0744838
0.0746458
0.074758
0.0748208
0.0748349
0.0748008
0.0747194
0.0745915
0.0744182
0.0742006
0.07394
0.0736379
0.0732956
0.0729149
0.0724976
0.0720455
0.0715607
0.0710452
0.0705011
0.0699309
0.0693368
0.0687215
0.0680873
0.0674369
0.0667729
0.066098
0.0654147
0.0647256
0.0640335
0.0633408
0.06265
0.0619635
0.0612835
0.060612
0.0599507
0.0593009
0.0586672
0.0580533
0.0574149
0.0567112
0.0117739
0.010921
0.0101634
0.0094515
0.00872961
0.00800182
0.00727301
0.00654405
0.00581606
0.00509063
0.0043695
0.00365455
0.00294775
0.00225114
0.00156684
0.000896964
0.000243671
-0.000390909
-0.00100467
-0.00159555
-0.00216152
-0.00270065
-0.00321106
-0.00369095
-0.00413858
-0.00455233
-0.00493067
-0.00527217
-0.0055755
-0.00583944
-0.00606283
-0.00624464
-0.00638392
-0.00647984
-0.00653165
-0.00653873
-0.00650052
-0.00641658
-0.00628655
-0.00611018
-0.00588728
-0.00561776
-0.00530161
-0.00493892
-0.00452985
-0.00407462
-0.00357359
-0.00302716
-0.00243582
-0.00180011
-0.00112064
-0.000398075
0.000366838
0.00117329
0.00202041
0.00290726
0.00383287
0.00479619