/*--------------------------------*- C++ -*----------------------------------*\
  =========                 |
  \\      /  F ield         | OpenFOAM: The Open Source CFD Toolbox
   \\    /   O peration     | Website:  https://openfoam.org
    \\  /    A nd           | Version:  7
     \\/     M anipulation  |
\*---------------------------------------------------------------------------*/
FoamFile
{
    version     2.0;
    format      ascii;
    class       volVectorField;
    location    "0.2625";
    object      U;
}
// * * * * * * * * * * * * * * * * * * * * * * * * * * * * * * * * * * * * * //

dimensions      [0 1 -1 0 0 0 0];

internalField   nonuniform List<vector> 
25600
(
(1.64346e-07 -2.21969e-07 0)
(2.81657e-06 -1.80432e-06 0)
(9.06685e-06 -2.83754e-06 0)
(1.69225e-05 -3.20822e-06 0)
(2.4879e-05 -3.12309e-06 0)
(3.19901e-05 -2.74396e-06 0)
(3.76043e-05 -2.17845e-06 0)
(4.1272e-05 -1.49768e-06 0)
(4.26941e-05 -7.47641e-07 0)
(4.16779e-05 4.15927e-08 0)
(3.81057e-05 8.49467e-07 0)
(3.19151e-05 1.66156e-06 0)
(2.30851e-05 2.46778e-06 0)
(1.16253e-05 3.26102e-06 0)
(-2.43081e-06 4.03606e-06 0)
(-1.90321e-05 4.78893e-06 0)
(-3.81129e-05 5.51659e-06 0)
(-5.9597e-05 6.21683e-06 0)
(-8.33995e-05 6.88804e-06 0)
(-0.000109429 7.52906e-06 0)
(-0.00013759 8.13902e-06 0)
(-0.000167781 8.71727e-06 0)
(-0.000199899 9.26343e-06 0)
(-0.000233838 9.77732e-06 0)
(-0.000269492 1.0259e-05 0)
(-0.000306753 1.07084e-05 0)
(-0.000345514 1.11257e-05 0)
(-0.000385666 1.1511e-05 0)
(-0.000427101 1.18646e-05 0)
(-0.000469712 1.21869e-05 0)
(-0.000513392 1.24783e-05 0)
(-0.000558036 1.27392e-05 0)
(-0.00060354 1.29701e-05 0)
(-0.000649799 1.31714e-05 0)
(-0.000696713 1.33435e-05 0)
(-0.000744181 1.3487e-05 0)
(-0.000792105 1.36025e-05 0)
(-0.000840387 1.36905e-05 0)
(-0.000888932 1.37516e-05 0)
(-0.000937647 1.37863e-05 0)
(-0.00098644 1.37952e-05 0)
(-0.00103522 1.37788e-05 0)
(-0.0010839 1.37378e-05 0)
(-0.0011324 1.36727e-05 0)
(-0.00118063 1.35842e-05 0)
(-0.0012285 1.34727e-05 0)
(-0.00127595 1.3339e-05 0)
(-0.00132288 1.31836e-05 0)
(-0.00136923 1.30071e-05 0)
(-0.00141493 1.28101e-05 0)
(-0.00145989 1.25932e-05 0)
(-0.00150405 1.2357e-05 0)
(-0.00154734 1.21021e-05 0)
(-0.00158971 1.18291e-05 0)
(-0.00163107 1.15385e-05 0)
(-0.00167138 1.12311e-05 0)
(-0.00171057 1.09073e-05 0)
(-0.00174859 1.05678e-05 0)
(-0.00178538 1.02132e-05 0)
(-0.00182089 9.84406e-06 0)
(-0.00185506 9.46094e-06 0)
(-0.00188786 9.06452e-06 0)
(-0.00191923 8.6554e-06 0)
(-0.00194913 8.23418e-06 0)
(-0.00197751 7.80143e-06 0)
(-0.00200434 7.35773e-06 0)
(-0.00202958 6.90371e-06 0)
(-0.0020532 6.44001e-06 0)
(-0.00207515 5.96726e-06 0)
(-0.00209541 5.48609e-06 0)
(-0.00211396 4.99709e-06 0)
(-0.00213076 4.50088e-06 0)
(-0.00214578 3.9981e-06 0)
(-0.00215902 3.48941e-06 0)
(-0.00217044 2.97545e-06 0)
(-0.00218003 2.45687e-06 0)
(-0.00218777 1.93432e-06 0)
(-0.00219366 1.40847e-06 0)
(-0.00219768 8.79978e-07 0)
(-0.00219983 3.49522e-07 0)
(-0.00220009 -1.82219e-07 0)
(-0.00219847 -7.14555e-07 0)
(-0.00219496 -1.24678e-06 0)
(-0.00218957 -1.77819e-06 0)
(-0.0021823 -2.30805e-06 0)
(-0.00217315 -2.83569e-06 0)
(-0.00216215 -3.36037e-06 0)
(-0.00214929 -3.88139e-06 0)
(-0.0021346 -4.39799e-06 0)
(-0.00211809 -4.90942e-06 0)
(-0.00209978 -5.41492e-06 0)
(-0.0020797 -5.91375e-06 0)
(-0.00205786 -6.40516e-06 0)
(-0.0020343 -6.88839e-06 0)
(-0.00200905 -7.36267e-06 0)
(-0.00198214 -7.82723e-06 0)
(-0.00195361 -8.28128e-06 0)
(-0.0019235 -8.72408e-06 0)
(-0.00189184 -9.15482e-06 0)
(-0.00185869 -9.57274e-06 0)
(-0.00182408 -9.97705e-06 0)
(-0.00178807 -1.0367e-05 0)
(-0.00175072 -1.07418e-05 0)
(-0.00171207 -1.11006e-05 0)
(-0.00167219 -1.14428e-05 0)
(-0.00163114 -1.17675e-05 0)
(-0.00158897 -1.20739e-05 0)
(-0.00154576 -1.23614e-05 0)
(-0.00150157 -1.26292e-05 0)
(-0.00145647 -1.28764e-05 0)
(-0.00141054 -1.31025e-05 0)
(-0.00136386 -1.33067e-05 0)
(-0.0013165 -1.34883e-05 0)
(-0.00126854 -1.36467e-05 0)
(-0.00122007 -1.3781e-05 0)
(-0.00117117 -1.38908e-05 0)
(-0.00112193 -1.39752e-05 0)
(-0.00107244 -1.40338e-05 0)
(-0.0010228 -1.40658e-05 0)
(-0.000973083 -1.40708e-05 0)
(-0.000923402 -1.40482e-05 0)
(-0.00087385 -1.39975e-05 0)
(-0.000824525 -1.39182e-05 0)
(-0.00077553 -1.38096e-05 0)
(-0.000726965 -1.36715e-05 0)
(-0.000678935 -1.35035e-05 0)
(-0.000631543 -1.33051e-05 0)
(-0.000584896 -1.3076e-05 0)
(-0.000539101 -1.28159e-05 0)
(-0.000494264 -1.25246e-05 0)
(-0.000450493 -1.22018e-05 0)
(-0.000407898 -1.18474e-05 0)
(-0.000366584 -1.14612e-05 0)
(-0.000326661 -1.10433e-05 0)
(-0.000288237 -1.05937e-05 0)
(-0.000251417 -1.01126e-05 0)
(-0.000216307 -9.6e-06 0)
(-0.000183012 -9.05633e-06 0)
(-0.000151633 -8.48195e-06 0)
(-0.000122269 -7.8775e-06 0)
(-9.50158e-05 -7.24382e-06 0)
(-6.99658e-05 -6.58192e-06 0)
(-4.72052e-05 -5.893e-06 0)
(-2.68141e-05 -5.17864e-06 0)
(-8.86466e-06 -4.44092e-06 0)
(6.5807e-06 -3.68254e-06 0)
(1.94716e-05 -2.90684e-06 0)
(2.9773e-05 -2.11812e-06 0)
(3.74694e-05 -1.32216e-06 0)
(4.25703e-05 -5.26853e-07 0)
(4.51165e-05 2.57237e-07 0)
(4.51904e-05 1.01575e-06 0)
(4.293e-05 1.72822e-06 0)
(3.85498e-05 2.36404e-06 0)
(3.237e-05 2.87653e-06 0)
(2.48578e-05 3.19494e-06 0)
(1.66787e-05 3.21424e-06 0)
(8.7836e-06 2.77807e-06 0)
(2.64823e-06 1.69503e-06 0)
(1.24306e-07 1.22369e-07 0)
(1.76921e-06 -2.90279e-06 0)
(9.36643e-06 -9.43111e-06 0)
(2.31221e-05 -1.34252e-05 0)
(3.93574e-05 -1.47277e-05 0)
(5.52277e-05 -1.39573e-05 0)
(6.87409e-05 -1.16842e-05 0)
(7.8358e-05 -8.34968e-06 0)
(8.29231e-05 -4.28277e-06 0)
(8.16051e-05 2.76619e-07 0)
(7.38262e-05 5.15387e-06 0)
(5.92025e-05 1.02203e-05 0)
(3.75026e-05 1.53798e-05 0)
(8.61188e-06 2.05601e-05 0)
(-2.74926e-05 2.5706e-05 0)
(-7.07628e-05 3.07751e-05 0)
(-0.000121093 3.57344e-05 0)
(-0.000178334 4.05585e-05 0)
(-0.000242298 4.52271e-05 0)
(-0.000312771 4.97245e-05 0)
(-0.000389517 5.40385e-05 0)
(-0.00047228 5.81598e-05 0)
(-0.000560792 6.20814e-05 0)
(-0.000654771 6.5798e-05 0)
(-0.00075393 6.93057e-05 0)
(-0.000857975 7.2602e-05 0)
(-0.000966607 7.56854e-05 0)
(-0.00107952 7.8555e-05 0)
(-0.00119642 8.1211e-05 0)
(-0.001317 8.36539e-05 0)
(-0.00144096 8.58849e-05 0)
(-0.00156799 8.79057e-05 0)
(-0.00169779 8.97182e-05 0)
(-0.00183006 9.13248e-05 0)
(-0.00196452 9.2728e-05 0)
(-0.00210086 9.39304e-05 0)
(-0.00223881 9.49352e-05 0)
(-0.00237808 9.57456e-05 0)
(-0.00251838 9.63649e-05 0)
(-0.00265945 9.67965e-05 0)
(-0.00280101 9.70441e-05 0)
(-0.0029428 9.71111e-05 0)
(-0.00308456 9.70015e-05 0)
(-0.00322604 9.67191e-05 0)
(-0.00336698 9.62677e-05 0)
(-0.00350715 9.56513e-05 0)
(-0.0036463 9.48738e-05 0)
(-0.0037842 9.39393e-05 0)
(-0.00392063 9.28517e-05 0)
(-0.00405537 9.16151e-05 0)
(-0.00418819 9.02337e-05 0)
(-0.0043189 8.87115e-05 0)
(-0.00444729 8.70528e-05 0)
(-0.00457316 8.52616e-05 0)
(-0.00469632 8.33421e-05 0)
(-0.00481659 8.12985e-05 0)
(-0.00493378 7.9135e-05 0)
(-0.00504774 7.68557e-05 0)
(-0.00515828 7.44648e-05 0)
(-0.00526525 7.19667e-05 0)
(-0.00536849 6.93654e-05 0)
(-0.00546786 6.66653e-05 0)
(-0.00556322 6.38707e-05 0)
(-0.00565442 6.09857e-05 0)
(-0.00574135 5.80148e-05 0)
(-0.00582387 5.49622e-05 0)
(-0.00590187 5.18322e-05 0)
(-0.00597525 4.86292e-05 0)
(-0.00604389 4.53576e-05 0)
(-0.0061077 4.20218e-05 0)
(-0.00616659 3.86263e-05 0)
(-0.00622048 3.51755e-05 0)
(-0.00626928 3.1674e-05 0)
(-0.00631293 2.81262e-05 0)
(-0.00635137 2.45367e-05 0)
(-0.00638453 2.09102e-05 0)
(-0.00641236 1.72513e-05 0)
(-0.00643483 1.35647e-05 0)
(-0.00645188 9.85511e-06 0)
(-0.00646351 6.1273e-06 0)
(-0.00646967 2.38611e-06 0)
(-0.00647036 -1.36358e-06 0)
(-0.00646557 -5.11686e-06 0)
(-0.00645529 -8.86878e-06 0)
(-0.00643954 -1.26144e-05 0)
(-0.00641832 -1.63485e-05 0)
(-0.00639166 -2.00663e-05 0)
(-0.00635958 -2.37624e-05 0)
(-0.00632213 -2.74318e-05 0)
(-0.00627934 -3.10692e-05 0)
(-0.00623126 -3.46693e-05 0)
(-0.00617796 -3.82269e-05 0)
(-0.0061195 -4.17367e-05 0)
(-0.00605595 -4.51933e-05 0)
(-0.0059874 -4.85914e-05 0)
(-0.00591394 -5.19256e-05 0)
(-0.00583566 -5.51905e-05 0)
(-0.00575267 -5.83806e-05 0)
(-0.00566509 -6.14905e-05 0)
(-0.00557304 -6.45147e-05 0)
(-0.00547664 -6.74479e-05 0)
(-0.00537603 -7.02845e-05 0)
(-0.00527137 -7.30192e-05 0)
(-0.00516279 -7.56466e-05 0)
(-0.00505047 -7.81613e-05 0)
(-0.00493457 -8.05579e-05 0)
(-0.00481527 -8.28312e-05 0)
(-0.00469275 -8.49758e-05 0)
(-0.0045672 -8.69866e-05 0)
(-0.00443883 -8.88585e-05 0)
(-0.00430784 -9.05863e-05 0)
(-0.00417444 -9.21652e-05 0)
(-0.00403885 -9.35902e-05 0)
(-0.00390131 -9.48566e-05 0)
(-0.00376204 -9.59597e-05 0)
(-0.00362129 -9.68949e-05 0)
(-0.00347931 -9.76577e-05 0)
(-0.00333634 -9.8244e-05 0)
(-0.00319266 -9.86494e-05 0)
(-0.00304851 -9.88702e-05 0)
(-0.00290419 -9.89026e-05 0)
(-0.00275995 -9.87428e-05 0)
(-0.00261609 -9.83876e-05 0)
(-0.00247288 -9.78337e-05 0)
(-0.00233062 -9.70782e-05 0)
(-0.00218961 -9.61184e-05 0)
(-0.00205013 -9.49519e-05 0)
(-0.00191249 -9.35765e-05 0)
(-0.00177698 -9.19904e-05 0)
(-0.00164393 -9.01922e-05 0)
(-0.00151362 -8.81807e-05 0)
(-0.00138637 -8.59552e-05 0)
(-0.00126248 -8.35155e-05 0)
(-0.00114227 -8.08617e-05 0)
(-0.00102602 -7.79947e-05 0)
(-0.000914054 -7.49159e-05 0)
(-0.000806662 -7.16274e-05 0)
(-0.000704139 -6.81323e-05 0)
(-0.000606773 -6.44341e-05 0)
(-0.000514844 -6.0538e-05 0)
(-0.000428624 -5.64501e-05 0)
(-0.000348371 -5.21784e-05 0)
(-0.00027433 -4.77325e-05 0)
(-0.00020673 -4.31244e-05 0)
(-0.000145774 -3.83687e-05 0)
(-9.16448e-05 -3.34835e-05 0)
(-4.44891e-05 -2.84915e-05 0)
(-4.41664e-06 -2.34208e-05 0)
(2.85112e-05 -1.83067e-05 0)
(5.42926e-05 -1.31935e-05 0)
(7.30002e-05 -8.13855e-06 0)
(8.48002e-05 -3.21603e-06 0)
(8.9976e-05 1.47694e-06 0)
(8.89615e-05 5.81199e-06 0)
(8.23837e-05 9.61592e-06 0)
(7.11187e-05 1.26521e-05 0)
(5.63586e-05 1.45991e-05 0)
(3.96611e-05 1.50326e-05 0)
(2.30112e-05 1.34129e-05 0)
(9.18615e-06 9.18363e-06 0)
(1.69852e-06 2.64325e-06 0)
(2.8214e-06 -9.10642e-06 0)
(1.3396e-05 -2.31762e-05 0)
(3.10493e-05 -3.10706e-05 0)
(5.08045e-05 -3.31221e-05 0)
(6.90606e-05 -3.0431e-05 0)
(8.32558e-05 -2.40917e-05 0)
(9.13079e-05 -1.50318e-05 0)
(9.15766e-05 -3.99627e-06 0)
(8.28305e-05 8.43405e-06 0)
(6.41749e-05 2.18114e-05 0)
(3.49886e-05 3.57916e-05 0)
(-5.12908e-06 5.01084e-05 0)
(-5.64001e-05 6.45548e-05 0)
(-0.000118904 7.89683e-05 0)
(-0.000192607 9.32213e-05 0)
(-0.000277379 0.000107213 0)
(-0.000373017 0.000120864 0)
(-0.000479258 0.00013411 0)
(-0.000595789 0.000146902 0)
(-0.000722255 0.000159198 0)
(-0.000858274 0.000170967 0)
(-0.00100343 0.000182186 0)
(-0.0011573 0.000192835 0)
(-0.00131944 0.000202901 0)
(-0.00148938 0.000212372 0)
(-0.00166665 0.000221242 0)
(-0.00185079 0.000229506 0)
(-0.00204131 0.000237163 0)
(-0.00223774 0.000244213 0)
(-0.00243959 0.000250658 0)
(-0.00264638 0.0002565 0)
(-0.00285763 0.000261744 0)
(-0.00307286 0.000266396 0)
(-0.00329161 0.000270462 0)
(-0.0035134 0.000273949 0)
(-0.00373778 0.000276865 0)
(-0.00396428 0.000279219 0)
(-0.00419246 0.000281019 0)
(-0.00442187 0.000282275 0)
(-0.00465207 0.000282997 0)
(-0.00488265 0.000283195 0)
(-0.00511317 0.000282879 0)
(-0.00534323 0.000282061 0)
(-0.00557243 0.00028075 0)
(-0.00580036 0.000278959 0)
(-0.00602664 0.000276699 0)
(-0.00625089 0.00027398 0)
(-0.00647276 0.000270816 0)
(-0.00669187 0.000267216 0)
(-0.00690788 0.000263194 0)
(-0.00712045 0.00025876 0)
(-0.00732924 0.000253927 0)
(-0.00753395 0.000248707 0)
(-0.00773425 0.000243113 0)
(-0.00792985 0.000237155 0)
(-0.00812046 0.000230846 0)
(-0.00830579 0.000224199 0)
(-0.00848557 0.000217226 0)
(-0.00865954 0.000209938 0)
(-0.00882746 0.00020235 0)
(-0.00898907 0.000194471 0)
(-0.00914415 0.000186317 0)
(-0.00929247 0.000177898 0)
(-0.00943384 0.000169227 0)
(-0.00956804 0.000160318 0)
(-0.00969488 0.000151182 0)
(-0.00981419 0.000141833 0)
(-0.0099258 0.000132283 0)
(-0.0100296 0.000122546 0)
(-0.0101253 0.000112634 0)
(-0.0102129 0.000102561 0)
(-0.0102922 9.23394e-05 0)
(-0.0103632 8.19831e-05 0)
(-0.0104256 7.15054e-05 0)
(-0.0104795 6.09198e-05 0)
(-0.0105247 5.024e-05 0)
(-0.0105611 3.94797e-05 0)
(-0.0105888 2.86528e-05 0)
(-0.0106076 1.77734e-05 0)
(-0.0106176 6.8555e-06 0)
(-0.0106186 -4.08651e-06 0)
(-0.0106107 -1.50383e-05 0)
(-0.0105939 -2.59853e-05 0)
(-0.0105682 -3.69129e-05 0)
(-0.0105336 -4.78064e-05 0)
(-0.0104901 -5.86508e-05 0)
(-0.0104379 -6.94313e-05 0)
(-0.0103769 -8.01326e-05 0)
(-0.0103072 -9.07395e-05 0)
(-0.0102289 -0.000101237 0)
(-0.0101422 -0.000111609 0)
(-0.010047 -0.00012184 0)
(-0.00994359 -0.000131915 0)
(-0.00983205 -0.000141819 0)
(-0.00971252 -0.000151534 0)
(-0.00958517 -0.000161047 0)
(-0.00945018 -0.00017034 0)
(-0.00930772 -0.000179399 0)
(-0.00915799 -0.000188206 0)
(-0.00900121 -0.000196747 0)
(-0.00883761 -0.000205006 0)
(-0.00866741 -0.000212966 0)
(-0.00849087 -0.000220613 0)
(-0.00830825 -0.00022793 0)
(-0.00811982 -0.000234903 0)
(-0.00792587 -0.000241516 0)
(-0.00772671 -0.000247753 0)
(-0.00752263 -0.0002536 0)
(-0.00731397 -0.000259042 0)
(-0.00710107 -0.000264064 0)
(-0.00688426 -0.000268652 0)
(-0.00666391 -0.000272792 0)
(-0.00644039 -0.000276471 0)
(-0.00621407 -0.000279674 0)
(-0.00598535 -0.000282389 0)
(-0.00575463 -0.000284603 0)
(-0.00552232 -0.000286304 0)
(-0.00528883 -0.000287481 0)
(-0.00505461 -0.000288122 0)
(-0.00482008 -0.000288216 0)
(-0.00458569 -0.000287753 0)
(-0.0043519 -0.000286725 0)
(-0.00411917 -0.000285121 0)
(-0.00388795 -0.000282935 0)
(-0.00365874 -0.000280159 0)
(-0.00343199 -0.000276786 0)
(-0.0032082 -0.000272811 0)
(-0.00298784 -0.00026823 0)
(-0.00277142 -0.000263038 0)
(-0.0025594 -0.000257235 0)
(-0.0023523 -0.000250818 0)
(-0.00215058 -0.000243788 0)
(-0.00195475 -0.000236147 0)
(-0.00176528 -0.000227899 0)
(-0.00158266 -0.000219049 0)
(-0.00140734 -0.000209606 0)
(-0.00123981 -0.00019958 0)
(-0.0010805 -0.000188985 0)
(-0.000929849 -0.000177837 0)
(-0.000788284 -0.000166157 0)
(-0.000656199 -0.000153971 0)
(-0.000533968 -0.00014131 0)
(-0.000421931 -0.000128214 0)
(-0.000320393 -0.000114728 0)
(-0.000229614 -0.00010091 0)
(-0.0001498 -8.68306e-05 0)
(-8.10914e-05 -7.25751e-05 0)
(-2.35496e-05 -5.82507e-05 0)
(2.28608e-05 -4.39895e-05 0)
(5.82927e-05 -2.99577e-05 0)
(8.3044e-05 -1.63657e-05 0)
(9.75909e-05 -3.4815e-06 0)
(0.000102628 8.35222e-06 0)
(9.91191e-05 1.86951e-05 0)
(8.83555e-05 2.69804e-05 0)
(7.20229e-05 3.24886e-05 0)
(5.22247e-05 3.4336e-05 0)
(3.15084e-05 3.1503e-05 0)
(1.34126e-05 2.30146e-05 0)
(2.77799e-06 8.77561e-06 0)
(3.20442e-06 -1.69458e-05 0)
(1.47416e-05 -3.94201e-05 0)
(3.31851e-05 -5.08376e-05 0)
(5.26719e-05 -5.25744e-05 0)
(6.9096e-05 -4.63715e-05 0)
(7.95461e-05 -3.39034e-05 0)
(8.16095e-05 -1.66294e-05 0)
(7.33374e-05 4.23818e-06 0)
(5.32226e-05 2.77184e-05 0)
(2.01386e-05 5.30282e-05 0)
(-2.67235e-05 7.95464e-05 0)
(-8.79066e-05 0.00010678 0)
(-0.000163734 0.000134336 0)
(-0.000254344 0.000161903 0)
(-0.000359728 0.000189229 0)
(-0.000479751 0.000216115 0)
(-0.000614178 0.000242397 0)
(-0.000762689 0.000267948 0)
(-0.000924895 0.000292661 0)
(-0.00110035 0.000316454 0)
(-0.00128856 0.00033926 0)
(-0.00148901 0.000361025 0)
(-0.00170112 0.000381709 0)
(-0.00192432 0.000401279 0)
(-0.002158 0.000419712 0)
(-0.00240155 0.000436989 0)
(-0.00265433 0.000453101 0)
(-0.00291572 0.000468039 0)
(-0.00318506 0.000481802 0)
(-0.00346172 0.000494392 0)
(-0.00374505 0.000505811 0)
(-0.00403441 0.000516066 0)
(-0.00432915 0.000525168 0)
(-0.00462865 0.000533126 0)
(-0.00493226 0.000539954 0)
(-0.00523937 0.000545665 0)
(-0.00554935 0.000550276 0)
(-0.0058616 0.000553803 0)
(-0.00617551 0.000556263 0)
(-0.00649049 0.000557675 0)
(-0.00680597 0.000558059 0)
(-0.00712136 0.000557434 0)
(-0.00743611 0.000555821 0)
(-0.00774966 0.000553241 0)
(-0.00806149 0.000549714 0)
(-0.00837106 0.000545264 0)
(-0.00867785 0.000539912 0)
(-0.00898137 0.000533681 0)
(-0.00928113 0.000526593 0)
(-0.00957664 0.000518672 0)
(-0.00986745 0.00050994 0)
(-0.0101531 0.000500421 0)
(-0.0104331 0.000490139 0)
(-0.0107072 0.000479116 0)
(-0.0109748 0.000467377 0)
(-0.0112355 0.000454946 0)
(-0.0114891 0.000441847 0)
(-0.011735 0.000428104 0)
(-0.011973 0.000413741 0)
(-0.0122027 0.000398782 0)
(-0.0124238 0.000383253 0)
(-0.0126359 0.000367177 0)
(-0.0128388 0.00035058 0)
(-0.0130322 0.000333486 0)
(-0.0132158 0.000315921 0)
(-0.0133893 0.000297909 0)
(-0.0135525 0.000279476 0)
(-0.0137051 0.000260647 0)
(-0.013847 0.000241448 0)
(-0.0139779 0.000221905 0)
(-0.0140977 0.000202043 0)
(-0.0142062 0.00018189 0)
(-0.0143031 0.000161471 0)
(-0.0143885 0.000140812 0)
(-0.0144621 0.000119942 0)
(-0.0145238 9.88861e-05 0)
(-0.0145736 7.76722e-05 0)
(-0.0146114 5.63279e-05 0)
(-0.014637 3.48807e-05 0)
(-0.0146505 1.33587e-05 0)
(-0.0146518 -8.20992e-06 0)
(-0.0146409 -2.97967e-05 0)
(-0.0146178 -5.1373e-05 0)
(-0.0145825 -7.29098e-05 0)
(-0.0145351 -9.4378e-05 0)
(-0.0144755 -0.000115748 0)
(-0.0144039 -0.000136991 0)
(-0.0143204 -0.000158076 0)
(-0.014225 -0.000178974 0)
(-0.0141178 -0.000199654 0)
(-0.013999 -0.000220086 0)
(-0.0138687 -0.000240239 0)
(-0.0137272 -0.000260083 0)
(-0.0135745 -0.000279586 0)
(-0.013411 -0.000298718 0)
(-0.0132367 -0.000317449 0)
(-0.013052 -0.000335746 0)
(-0.0128571 -0.000353579 0)
(-0.0126523 -0.000370916 0)
(-0.0124378 -0.000387727 0)
(-0.012214 -0.000403981 0)
(-0.0119812 -0.000419646 0)
(-0.0117397 -0.000434692 0)
(-0.01149 -0.000449089 0)
(-0.0112323 -0.000462806 0)
(-0.0109671 -0.000475813 0)
(-0.0106947 -0.000488081 0)
(-0.0104157 -0.00049958 0)
(-0.0101303 -0.000510282 0)
(-0.00983924 -0.000520157 0)
(-0.00954281 -0.000529178 0)
(-0.00924154 -0.000537317 0)
(-0.00893594 -0.000544549 0)
(-0.00862652 -0.000550846 0)
(-0.00831382 -0.000556184 0)
(-0.00799839 -0.000560539 0)
(-0.00768077 -0.000563886 0)
(-0.00736155 -0.000566203 0)
(-0.00704131 -0.000567469 0)
(-0.00672065 -0.000567663 0)
(-0.00640016 -0.000566766 0)
(-0.00608046 -0.000564761 0)
(-0.00576218 -0.00056163 0)
(-0.00544595 -0.000557359 0)
(-0.00513241 -0.000551934 0)
(-0.0048222 -0.000545344 0)
(-0.00451598 -0.000537578 0)
(-0.0042144 -0.00052863 0)
(-0.00391812 -0.000518493 0)
(-0.00362779 -0.000507165 0)
(-0.00334407 -0.000494645 0)
(-0.00306763 -0.000480935 0)
(-0.0027991 -0.000466041 0)
(-0.00253914 -0.000449974 0)
(-0.00228839 -0.000432745 0)
(-0.00204746 -0.000414374 0)
(-0.00181697 -0.000394883 0)
(-0.00159752 -0.000374302 0)
(-0.00138968 -0.000352668 0)
(-0.001194 -0.000330026 0)
(-0.00101099 -0.00030643 0)
(-0.000841137 -0.000281945 0)
(-0.00068487 -0.000256653 0)
(-0.000542572 -0.000230649 0)
(-0.000414565 -0.00020405 0)
(-0.000301092 -0.000176998 0)
(-0.000202309 -0.000149665 0)
(-0.000118263 -0.000122264 0)
(-4.88743e-05 -9.50513e-05 0)
(6.08924e-06 -6.83475e-05 0)
(4.70438e-05 -4.25481e-05 0)
(7.46263e-05 -1.81464e-05 0)
(8.97369e-05 4.24195e-06 0)
(9.35866e-05 2.38488e-05 0)
(8.77539e-05 3.97208e-05 0)
(7.42428e-05 5.06918e-05 0)
(5.54931e-05 5.53789e-05 0)
(3.44074e-05 5.22276e-05 0)
(1.50511e-05 3.96816e-05 0)
(3.21349e-06 1.66707e-05 0)
(3.13209e-06 -2.49198e-05 0)
(1.40324e-05 -5.53542e-05 0)
(3.06382e-05 -6.9171e-05 0)
(4.67101e-05 -6.9035e-05 0)
(5.78649e-05 -5.7463e-05 0)
(6.09707e-05 -3.67579e-05 0)
(5.34199e-05 -8.92798e-06 0)
(3.30766e-05 2.43335e-05 0)
(-1.73933e-06 6.16261e-05 0)
(-5.23124e-05 0.000101805 0)
(-0.000119585 0.00014394 0)
(-0.000204209 0.000187278 0)
(-0.000306588 0.000231207 0)
(-0.000426913 0.000275233 0)
(-0.000565201 0.000318953 0)
(-0.000721319 0.000362041 0)
(-0.00089501 0.00040423 0)
(-0.00108591 0.000445304 0)
(-0.00129358 0.000485087 0)
(-0.00151749 0.000523436 0)
(-0.00175706 0.000560236 0)
(-0.00201167 0.000595395 0)
(-0.00228064 0.000628838 0)
(-0.00256327 0.00066051 0)
(-0.00285883 0.000690364 0)
(-0.00316657 0.000718369 0)
(-0.00348573 0.000744501 0)
(-0.00381553 0.000768746 0)
(-0.00415518 0.000791097 0)
(-0.00450389 0.000811551 0)
(-0.00486087 0.000830112 0)
(-0.00522532 0.000846789 0)
(-0.00559644 0.000861594 0)
(-0.00597346 0.000874543 0)
(-0.00635559 0.000885655 0)
(-0.00674204 0.00089495 0)
(-0.00713206 0.000902453 0)
(-0.00752489 0.000908189 0)
(-0.00791977 0.000912185 0)
(-0.00831596 0.000914472 0)
(-0.00871275 0.000915079 0)
(-0.00910941 0.000914037 0)
(-0.00950524 0.00091138 0)
(-0.00989956 0.000907141 0)
(-0.0102917 0.000901355 0)
(-0.010681 0.000894056 0)
(-0.0110667 0.00088528 0)
(-0.0114484 0.000875064 0)
(-0.0118253 0.000863444 0)
(-0.0121969 0.000850458 0)
(-0.0125626 0.000836143 0)
(-0.0129217 0.000820537 0)
(-0.0132739 0.000803678 0)
(-0.0136184 0.000785605 0)
(-0.0139549 0.000766358 0)
(-0.0142827 0.000745974 0)
(-0.0146015 0.000724494 0)
(-0.0149107 0.000701956 0)
(-0.01521 0.000678401 0)
(-0.0154988 0.000653868 0)
(-0.0157767 0.000628398 0)
(-0.0160435 0.000602031 0)
(-0.0162985 0.000574809 0)
(-0.0165416 0.000546771 0)
(-0.0167724 0.000517958 0)
(-0.0169905 0.000488413 0)
(-0.0171956 0.000458177 0)
(-0.0173875 0.000427291 0)
(-0.0175658 0.000395798 0)
(-0.0177304 0.00036374 0)
(-0.0178809 0.000331161 0)
(-0.0180172 0.000298103 0)
(-0.018139 0.000264609 0)
(-0.0182462 0.000230724 0)
(-0.0183387 0.000196491 0)
(-0.0184162 0.000161955 0)
(-0.0184787 0.000127161 0)
(-0.018526 9.21544e-05 0)
(-0.0185582 5.69801e-05 0)
(-0.018575 2.16843e-05 0)
(-0.0185765 -1.36865e-05 0)
(-0.0185627 -4.90855e-05 0)
(-0.0185335 -8.44656e-05 0)
(-0.018489 -0.000119779 0)
(-0.0184293 -0.000154979 0)
(-0.0183543 -0.000190015 0)
(-0.0182641 -0.000224841 0)
(-0.0181589 -0.000259406 0)
(-0.0180389 -0.000293662 0)
(-0.017904 -0.000327559 0)
(-0.0177546 -0.000361047 0)
(-0.0175907 -0.000394076 0)
(-0.0174127 -0.000426596 0)
(-0.0172207 -0.000458555 0)
(-0.017015 -0.000489905 0)
(-0.0167958 -0.000520593 0)
(-0.0165636 -0.000550569 0)
(-0.0163185 -0.000579782 0)
(-0.016061 -0.000608182 0)
(-0.0157913 -0.000635717 0)
(-0.01551 -0.000662337 0)
(-0.0152173 -0.000687992 0)
(-0.0149138 -0.000712632 0)
(-0.0145999 -0.000736206 0)
(-0.014276 -0.000758665 0)
(-0.0139426 -0.000779961 0)
(-0.0136003 -0.000800046 0)
(-0.0132496 -0.00081887 0)
(-0.012891 -0.000836388 0)
(-0.0125252 -0.000852554 0)
(-0.0121526 -0.000867321 0)
(-0.011774 -0.000880646 0)
(-0.01139 -0.000892485 0)
(-0.0110011 -0.000902797 0)
(-0.0106082 -0.000911541 0)
(-0.0102117 -0.000918676 0)
(-0.00981257 -0.000924166 0)
(-0.00941137 -0.000927975 0)
(-0.00900887 -0.000930067 0)
(-0.00860581 -0.000930411 0)
(-0.00820294 -0.000928976 0)
(-0.00780103 -0.000925733 0)
(-0.00740087 -0.000920657 0)
(-0.00700323 -0.000913724 0)
(-0.00660891 -0.000904914 0)
(-0.00621872 -0.000894209 0)
(-0.00583346 -0.000881595 0)
(-0.00545394 -0.00086706 0)
(-0.00508098 -0.000850597 0)
(-0.00471539 -0.000832205 0)
(-0.00435799 -0.000811883 0)
(-0.00400957 -0.000789638 0)
(-0.00367095 -0.000765483 0)
(-0.00334292 -0.000739435 0)
(-0.00302626 -0.000711521 0)
(-0.00272173 -0.000681772 0)
(-0.00243008 -0.000650232 0)
(-0.00215204 -0.000616951 0)
(-0.00188829 -0.000581995 0)
(-0.00163949 -0.000545442 0)
(-0.00140626 -0.000507384 0)
(-0.00118918 -0.000467936 0)
(-0.000988749 -0.000427233 0)
(-0.000805418 -0.000385437 0)
(-0.00063955 -0.000342743 0)
(-0.000491419 -0.000299387 0)
(-0.000361184 -0.00025565 0)
(-0.000248878 -0.000211875 0)
(-0.000154379 -0.000168475 0)
(-7.73849e-05 -0.000125956 0)
(-1.73849e-05 -8.49301e-05 0)
(2.63806e-05 -4.61493e-05 0)
(5.49596e-05 -1.05319e-05 0)
(6.97327e-05 2.08016e-05 0)
(7.24643e-05 4.64924e-05 0)
(6.53557e-05 6.49154e-05 0)
(5.10556e-05 7.41679e-05 0)
(3.27004e-05 7.2106e-05 0)
(1.46683e-05 5.64424e-05 0)
(3.20068e-06 2.48668e-05 0)
(2.76996e-06 -3.20874e-05 0)
(1.18439e-05 -6.90162e-05 0)
(2.45021e-05 -8.35548e-05 0)
(3.45888e-05 -7.96455e-05 0)
(3.76581e-05 -6.06333e-05 0)
(3.04655e-05 -2.94773e-05 0)
(1.03045e-05 1.12571e-05 0)
(-2.5054e-05 5.93922e-05 0)
(-7.73872e-05 0.000113103 0)
(-0.000148072 0.000170872 0)
(-0.000238137 0.000231444 0)
(-0.000348305 0.000293786 0)
(-0.000479036 0.000357045 0)
(-0.00063056 0.000420523 0)
(-0.000802913 0.000483644 0)
(-0.000995963 0.000545933 0)
(-0.00120944 0.000607001 0)
(-0.00144294 0.000666527 0)
(-0.00169597 0.000724248 0)
(-0.00196795 0.000779947 0)
(-0.00225823 0.00083345 0)
(-0.00256608 0.000884614 0)
(-0.00289075 0.000933323 0)
(-0.00323142 0.000979486 0)
(-0.00358725 0.00102303 0)
(-0.00395739 0.00106391 0)
(-0.00434093 0.00110207 0)
(-0.00473697 0.0011375 0)
(-0.0051446 0.00117018 0)
(-0.00556289 0.00120009 0)
(-0.00599091 0.00122725 0)
(-0.00642772 0.00125165 0)
(-0.0068724 0.00127333 0)
(-0.00732402 0.00129228 0)
(-0.00778164 0.00130855 0)
(-0.00824437 0.00132216 0)
(-0.00871128 0.00133314 0)
(-0.00918148 0.00134152 0)
(-0.00965408 0.00134735 0)
(-0.0101282 0.00135067 0)
(-0.010603 0.00135152 0)
(-0.0110776 0.00134994 0)
(-0.0115512 0.00134598 0)
(-0.0120229 0.0013397 0)
(-0.012492 0.00133113 0)
(-0.0129577 0.00132034 0)
(-0.0134192 0.00130737 0)
(-0.0138757 0.00129227 0)
(-0.0143266 0.00127511 0)
(-0.014771 0.00125592 0)
(-0.0152084 0.00123478 0)
(-0.0156379 0.00121173 0)
(-0.0160591 0.00118683 0)
(-0.0164712 0.00116014 0)
(-0.0168736 0.00113171 0)
(-0.0172657 0.0011016 0)
(-0.017647 0.00106987 0)
(-0.0180168 0.00103658 0)
(-0.0183746 0.00100179 0)
(-0.01872 0.000965554 0)
(-0.0190524 0.000927931 0)
(-0.0193713 0.000888983 0)
(-0.0196764 0.000848769 0)
(-0.0199671 0.000807351 0)
(-0.020243 0.000764789 0)
(-0.0205037 0.000721143 0)
(-0.020749 0.000676477 0)
(-0.0209784 0.000630851 0)
(-0.0211916 0.000584328 0)
(-0.0213883 0.000536972 0)
(-0.0215682 0.000488845 0)
(-0.0217311 0.000440011 0)
(-0.0218767 0.000390535 0)
(-0.0220048 0.000340481 0)
(-0.0221152 0.000289915 0)
(-0.0222078 0.000238902 0)
(-0.0222824 0.00018751 0)
(-0.0223389 0.000135804 0)
(-0.0223772 8.38533e-05 0)
(-0.0223972 3.17248e-05 0)
(-0.0223989 -2.05125e-05 0)
(-0.0223822 -7.27895e-05 0)
(-0.0223472 -0.000125036 0)
(-0.0222939 -0.000177183 0)
(-0.0222222 -0.000229158 0)
(-0.0221324 -0.00028089 0)
(-0.0220245 -0.000332308 0)
(-0.0218986 -0.00038334 0)
(-0.0217549 -0.000433911 0)
(-0.0215935 -0.00048395 0)
(-0.0214147 -0.000533382 0)
(-0.0212187 -0.000582134 0)
(-0.0210057 -0.000630132 0)
(-0.020776 -0.0006773 0)
(-0.0205299 -0.000723565 0)
(-0.0202679 -0.000768851 0)
(-0.0199901 -0.000813084 0)
(-0.019697 -0.000856188 0)
(-0.019389 -0.00089809 0)
(-0.0190666 -0.000938713 0)
(-0.0187302 -0.000977985 0)
(-0.0183802 -0.00101583 0)
(-0.0180173 -0.00105218 0)
(-0.017642 -0.00108695 0)
(-0.0172547 -0.00112008 0)
(-0.0168561 -0.00115149 0)
(-0.0164469 -0.00118111 0)
(-0.0160276 -0.00120887 0)
(-0.015599 -0.00123471 0)
(-0.0151616 -0.00125855 0)
(-0.0147162 -0.00128034 0)
(-0.0142636 -0.00129999 0)
(-0.0138045 -0.00131746 0)
(-0.0133396 -0.00133268 0)
(-0.0128698 -0.00134559 0)
(-0.0123958 -0.00135614 0)
(-0.0119185 -0.00136426 0)
(-0.0114388 -0.00136992 0)
(-0.0109575 -0.00137305 0)
(-0.0104755 -0.0013736 0)
(-0.00999371 -0.00137155 0)
(-0.00951299 -0.00136684 0)
(-0.00903429 -0.00135945 0)
(-0.00855854 -0.00134933 0)
(-0.00808668 -0.00133646 0)
(-0.00761966 -0.00132081 0)
(-0.00715843 -0.00130237 0)
(-0.00670395 -0.00128112 0)
(-0.00625719 -0.00125706 0)
(-0.00581909 -0.00123017 0)
(-0.00539061 -0.00120048 0)
(-0.0049727 -0.00116798 0)
(-0.0045663 -0.0011327 0)
(-0.00417234 -0.00109468 0)
(-0.00379172 -0.00105395 0)
(-0.00342535 -0.00101056 0)
(-0.00307407 -0.000964591 0)
(-0.00273874 -0.000916113 0)
(-0.00242015 -0.00086523 0)
(-0.00211905 -0.00081206 0)
(-0.00183615 -0.00075675 0)
(-0.0015721 -0.000699469 0)
(-0.00132748 -0.000640423 0)
(-0.00110278 -0.000579856 0)
(-0.000898402 -0.000518056 0)
(-0.000714646 -0.000455371 0)
(-0.000551674 -0.000392213 0)
(-0.000409505 -0.000329073 0)
(-0.000287984 -0.000266546 0)
(-0.000186758 -0.00020534 0)
(-0.000105248 -0.000146311 0)
(-4.2608e-05 -9.04868e-05 0)
(2.30582e-06 -3.91038e-05 0)
(3.0979e-05 6.35477e-06 0)
(4.52844e-05 4.41208e-05 0)
(4.75321e-05 7.21044e-05 0)
(4.04857e-05 8.78712e-05 0)
(2.74169e-05 8.86497e-05 0)
(1.28073e-05 7.1356e-05 0)
(2.89652e-06 3.24296e-05 0)
(2.22557e-06 -3.78078e-05 0)
(8.6151e-06 -7.88966e-05 0)
(1.56973e-05 -9.19458e-05 0)
(1.77487e-05 -8.20369e-05 0)
(1.04505e-05 -5.33201e-05 0)
(-9.45877e-06 -9.40374e-06 0)
(-4.47013e-05 4.65974e-05 0)
(-9.75283e-05 0.000112029 0)
(-0.000169749 0.000184643 0)
(-0.000262781 0.000262551 0)
(-0.000377693 0.000344167 0)
(-0.000515248 0.000428169 0)
(-0.000675934 0.000513451 0)
(-0.000860002 0.000599096 0)
(-0.0010675 0.000684339 0)
(-0.00129828 0.000768544 0)
(-0.00155207 0.000851181 0)
(-0.00182843 0.000931811 0)
(-0.00212682 0.00101007 0)
(-0.00244661 0.00108566 0)
(-0.00278708 0.00115833 0)
(-0.00314743 0.00122787 0)
(-0.00352682 0.00129413 0)
(-0.00392434 0.00135697 0)
(-0.00433906 0.00141628 0)
(-0.00477001 0.00147199 0)
(-0.00521617 0.00152403 0)
(-0.00567655 0.00157236 0)
(-0.00615009 0.00161696 0)
(-0.00663575 0.0016578 0)
(-0.00713247 0.00169488 0)
(-0.0076392 0.00172822 0)
(-0.00815488 0.00175783 0)
(-0.00867844 0.00178372 0)
(-0.00920884 0.00180594 0)
(-0.00974502 0.00182452 0)
(-0.010286 0.0018395 0)
(-0.0108306 0.00185092 0)
(-0.0113779 0.00185884 0)
(-0.011927 0.00186332 0)
(-0.0124767 0.0018644 0)
(-0.0130262 0.00186215 0)
(-0.0135745 0.00185663 0)
(-0.0141206 0.00184791 0)
(-0.0146636 0.00183606 0)
(-0.0152026 0.00182114 0)
(-0.0157367 0.00180322 0)
(-0.016265 0.00178237 0)
(-0.0167868 0.00175867 0)
(-0.0173011 0.0017322 0)
(-0.0178073 0.00170302 0)
(-0.0183044 0.00167122 0)
(-0.0187917 0.00163686 0)
(-0.0192686 0.00160003 0)
(-0.0197342 0.00156081 0)
(-0.0201879 0.00151928 0)
(-0.020629 0.00147551 0)
(-0.0210569 0.00142958 0)
(-0.0214709 0.00138158 0)
(-0.0218705 0.00133159 0)
(-0.0222551 0.00127969 0)
(-0.022624 0.00122595 0)
(-0.0229769 0.00117047 0)
(-0.0233132 0.00111333 0)
(-0.0236324 0.00105461 0)
(-0.023934 0.000994401 0)
(-0.0242177 0.000932779 0)
(-0.024483 0.000869834 0)
(-0.0247296 0.000805652 0)
(-0.024957 0.000740321 0)
(-0.0251651 0.000673927 0)
(-0.0253534 0.00060656 0)
(-0.0255218 0.000538307 0)
(-0.0256699 0.000469259 0)
(-0.0257975 0.000399505 0)
(-0.0259045 0.000329138 0)
(-0.0259907 0.000258248 0)
(-0.0260559 0.000186929 0)
(-0.0261001 0.000115273 0)
(-0.0261231 4.33747e-05 0)
(-0.0261249 -2.86711e-05 0)
(-0.0261054 -0.000100769 0)
(-0.0260648 -0.000172822 0)
(-0.0260029 -0.000244734 0)
(-0.0259199 -0.000316407 0)
(-0.0258159 -0.000387742 0)