/*--------------------------------*- C++ -*----------------------------------*\
  =========                 |
  \\      /  F ield         | OpenFOAM: The Open Source CFD Toolbox
   \\    /   O peration     | Website:  https://openfoam.org
    \\  /    A nd           | Version:  7
     \\/     M anipulation  |
\*---------------------------------------------------------------------------*/
FoamFile
{
    version     2.0;
    format      ascii;
    class       volScalarField;
    location    "0.075";
    object      p;
}
// * * * * * * * * * * * * * * * * * * * * * * * * * * * * * * * * * * * * * //

dimensions      [0 2 -2 0 0 0 0];

internalField   nonuniform List<scalar> 
25600
(
1.05093e-07
0.000108367
0.000136897
2.59797e-05
-0.000234647
-0.000641425
-0.00118251
-0.00184177
-0.00260229
-0.00344715
-0.00436093
-0.00532905
-0.006338
-0.00737571
-0.00843121
-0.00949443
-0.0105562
-0.0116084
-0.0126438
-0.0136556
-0.0146377
-0.0155848
-0.0164925
-0.0173563
-0.0181722
-0.0189366
-0.0196461
-0.0202978
-0.0208898
-0.0214195
-0.021885
-0.0222846
-0.0226166
-0.0228796
-0.023073
-0.0231958
-0.0232471
-0.023226
-0.0231323
-0.0229659
-0.0227269
-0.0224155
-0.022032
-0.0215762
-0.0210482
-0.0204489
-0.019779
-0.0190394
-0.018231
-0.0173548
-0.0164121
-0.0154041
-0.0143324
-0.0131985
-0.012004
-0.0107506
-0.00943945
-0.00807231
-0.00665086
-0.00517673
-0.00365166
-0.0020775
-0.000456402
0.00120935
0.00291756
0.00466606
0.00645248
0.00827434
0.0101292
0.0120146
0.0139281
0.0158672
0.0178294
0.019812
0.0218128
0.0238294
0.0258593
0.0278999
0.0299486
0.0320031
0.0340609
0.036119
0.0381748
0.0402255
0.0422685
0.0443011
0.0463206
0.0483244
0.0503095
0.0522734
0.0542133
0.0561264
0.05801
0.0598611
0.0616773
0.0634564
0.0651956
0.0668926
0.0685447
0.0701497
0.0717051
0.0732087
0.0746582
0.0760514
0.0773862
0.0786605
0.079873
0.081022
0.0821058
0.0831228
0.0840713
0.0849501
0.0857581
0.0864939
0.0871565
0.087745
0.0882587
0.0886972
0.0890599
0.0893467
0.0895575
0.0896924
0.0897515
0.0897354
0.0896451
0.0894816
0.0892458
0.0889385
0.0885612
0.0881157
0.0876043
0.0870297
0.0863943
0.0857009
0.0849526
0.084153
0.0833059
0.0824158
0.081487
0.0805245
0.0795338
0.0785208
0.077492
0.0764545
0.0754159
0.0743845
0.0733691
0.072379
0.0714242
0.0705159
0.069666
0.0688874
0.0681935
0.0675982
0.067115
0.0667565
0.0665316
0.0664421
0.0664778
0.0665865
-0.000107478
-1.80105e-05
-2.83955e-05
-0.000162904
-0.000419418
-0.000796195
-0.00128687
-0.00188056
-0.00256414
-0.00332483
-0.00414965
-0.00502632
-0.00594284
-0.00688852
-0.00785333
-0.00882785
-0.00980349
-0.0107727
-0.0117286
-0.0126644
-0.0135743
-0.0144533
-0.0152964
-0.0160994
-0.0168587
-0.0175701
-0.0182307
-0.0188375
-0.0193878
-0.0198797
-0.0203112
-0.0206802
-0.0209851
-0.0212246
-0.0213975
-0.0215033
-0.021541
-0.0215101
-0.0214099
-0.02124
-0.0210005
-0.0206914
-0.0203131
-0.0198656
-0.0193492
-0.0187644
-0.0181117
-0.0173919
-0.0166058
-0.0157545
-0.0148391
-0.0138609
-0.0128212
-0.0117216
-0.0105637
-0.00934867
-0.0080781
-0.00675345
-0.00537635
-0.00394841
-0.00247125
-0.000946747
0.000622983
0.00223589
0.0038899
0.00558279
0.00731229
0.00907606
0.0108717
0.0126971
0.0145498
0.0164271
0.0183268
0.0202463
0.0221834
0.0241358
0.0261009
0.0280764
0.0300596
0.0320484
0.0340403
0.0360324
0.0380219
0.0400065
0.0419835
0.0439504
0.0459045
0.0478431
0.0497636
0.0516635
0.0535401
0.0553909
0.057213
0.0590036
0.0607606
0.0624816
0.0641643
0.065806
0.0674045
0.0689575
0.0704628
0.0719181
0.0733212
0.07467
0.0759624
0.0771967
0.0783714
0.0794851
0.0805361
0.0815227
0.0824435
0.0832972
0.0840829
0.0847993
0.0854454
0.0860203
0.0865236
0.0869548
0.0873136
0.0875998
0.0878133
0.0879542
0.0880227
0.0880197
0.0879461
0.0878028
0.0875908
0.087311
0.0869647
0.0865539
0.0860811
0.0855486
0.0849591
0.0843152
0.0836199
0.0828768
0.0820899
0.0812632
0.0804012
0.0795086
0.0785908
0.0776532
0.0767024
0.0757451
0.0747885
0.0738405
0.0729093
0.0720033
0.071132
0.0703053
0.0695342
0.0688296
0.0682028
0.0676648
0.0672259
0.0668954
0.0666784
0.0665751
0.0665873
0.0666975
-0.000133713
-3.63456e-05
-5.86228e-05
-0.000203209
-0.00045565
-0.000812741
-0.00126976
-0.0018183
-0.00244787
-0.00314764
-0.00390695
-0.00471514
-0.00556171
-0.00643655
-0.00733107
-0.00823625
-0.00914403
-0.0100473
-0.0109394
-0.0118144
-0.0126663
-0.0134899
-0.0142806
-0.0150343
-0.0157468
-0.0164149
-0.0170352
-0.017605
-0.0181212
-0.0185818
-0.0189849
-0.0193286
-0.0196112
-0.0198312
-0.0199874
-0.020079
-0.0201053
-0.0200658
-0.01996
-0.0197873
-0.0195474
-0.0192404
-0.0188665
-0.018426
-0.0179191
-0.0173464
-0.0167081
-0.0160047
-0.0152373
-0.0144068
-0.0135144
-0.0125611
-0.0115482
-0.0104775
-0.00935029
-0.00816772
-0.00693127
-0.00564248
-0.00430276
-0.00291363
-0.00147678
5.92843e-06
0.00153243
0.00310081
0.00470918
0.00635528
0.00803678
0.00975155
0.0114974
0.0132721
0.0150734
0.0168986
0.0187455
0.0206117
0.0224951
0.0243931
0.0263035
0.0282238
0.0301519
0.0320853
0.0340216
0.0359579
0.0378916
0.0398204
0.0417418
0.0436533
0.0455522
0.0474359
0.0493021
0.0511483
0.0529718
0.0547701
0.0565403
0.0582801
0.0599873
0.0616597
0.0632949
0.0648903
0.0664437
0.0679531
0.0694164
0.0708312
0.0721955
0.073507
0.074764
0.0759649
0.0771081
0.0781923
0.0792158
0.0801771
0.0810747
0.0819076
0.0826747
0.083375
0.0840073
0.084571
0.0850657
0.085491
0.0858466
0.0861323
0.086348
0.0864938
0.0865702
0.086578
0.0865182
0.0863916
0.0861992
0.0859419
0.0856212
0.085239
0.0847978
0.0843
0.083748
0.0831445
0.0824924
0.0817952
0.0810569
0.0802815
0.0794733
0.0786368
0.0777772
0.0768998
0.0760109
0.0751168
0.0742246
0.0733415
0.0724751
0.0716334
0.0708251
0.0700596
0.0693464
0.0686953
0.068116
0.0676177
0.0672092
0.0668982
0.0666894
0.0665847
0.0665983
0.0667355
-3.62086e-05
6.18507e-05
3.19972e-05
-0.000119258
-0.000370027
-0.000715024
-0.00115009
-0.00166762
-0.00225893
-0.00291441
-0.00362476
-0.00438062
-0.00517286
-0.00599234
-0.0068308
-0.00768008
-0.00853289
-0.00938218
-0.0102218
-0.0110461
-0.0118493
-0.0126266
-0.0133732
-0.014085
-0.0147581
-0.0153892
-0.0159749
-0.0165127
-0.0169998
-0.0174336
-0.0178122
-0.0181339
-0.0183971
-0.0186003
-0.0187422
-0.0188218
-0.0188382
-0.0187912
-0.0186802
-0.0185047
-0.0182645
-0.0179596
-0.0175899
-0.0171555
-0.016657
-0.0160946
-0.0154688
-0.0147799
-0.014029
-0.0132168
-0.0123445
-0.0114131
-0.0104242
-0.00937895
-0.00827875
-0.00712477
-0.00591845
-0.0046613
-0.00335456
-0.00199963
-0.000598346
0.000847374
0.00233572
0.00386484
0.0054328
0.00703742
0.00867649
0.0103479
0.0120498
0.0137797
0.0155354
0.0173145
0.0191147
0.0209338
0.0227695
0.0246194
0.0264814
0.028353
0.0302322
0.0321166
0.0340036
0.0358905
0.0377749
0.0396545
0.0415269
0.0433893
0.0452394
0.0470747
0.0488931
0.0506919
0.0524685
0.0542205
0.0559452
0.0576403
0.0593037
0.0609333
0.0625266
0.0640812
0.0655951
0.0670663
0.0684927
0.069872
0.0712021
0.072481
0.073707
0.0748786
0.0759943
0.0770528
0.0780523
0.0789914
0.0798688
0.0806836
0.0814346
0.0821208
0.0827411
0.083295
0.0837822
0.0842024
0.0845553
0.0848405
0.085058
0.0852081
0.0852912
0.0853084
0.0852604
0.0851482
0.0849726
0.0847345
0.0844356
0.084078
0.0836638
0.0831956
0.0826755
0.0821061
0.0814905
0.080832
0.0801345
0.079402
0.0786386
0.0778487
0.0770371
0.0762091
0.0753706
0.0745279
0.0736874
0.0728559
0.0720405
0.0712488
0.070489
0.0697697
0.0690994
0.0684869
0.0679408
0.0674694
0.0670808
0.0667824
0.066579
0.0664749
0.0664923
0.0666465
0.000190068
0.000270754
0.000226006
6.50503e-05
-0.000187909
-0.000526217
-0.000946082
-0.00144074
-0.0020023
-0.00262265
-0.00329329
-0.00400591
-0.00475235
-0.00552444
-0.00631447
-0.00711538
-0.00791961
-0.00872096
-0.00951382
-0.0102923
-0.0110514
-0.0117862
-0.0124923
-0.0131656
-0.0138025
-0.0143989
-0.0149526
-0.0154605
-0.01592
-0.0163286
-0.0166843
-0.0169852
-0.0172299
-0.017417
-0.0175452
-0.0176134
-0.0176209
-0.0175669
-0.0174509
-0.0172726
-0.017032
-0.0167289
-0.0163632
-0.0159349
-0.0154444
-0.014892
-0.014278
-0.013603
-0.0128678
-0.0120731
-0.0112201
-0.0103098
-0.00934373
-0.00832303
-0.00724874
-0.00612223
-0.00494491
-0.00371804
-0.00244288
-0.0011209
0.000246141
0.00165635
0.00310801
0.00459941
0.0061285
0.0076931
0.00929128
0.0109212
0.0125806
0.0142674
0.0159792
0.0177138
0.019469
0.0212427
0.0230326
0.0248362
0.0266514
0.0284762
0.0303084
0.0321455
0.033985
0.0358244
0.0376614
0.0394936
0.0413187
0.043134
0.0449372
0.0467262
0.0484985
0.0502519
0.0519835
0.053691
0.055372
0.0570243
0.0586459
0.0602344
0.0617876
0.0633032
0.0647793
0.0662139
0.0676051
0.0689504
0.0702478
0.0714955
0.072692
0.0738356
0.0749251
0.0759589
0.0769355
0.0778535
0.0787117
0.0795092
0.0802448
0.0809174
0.0815262
0.0820709
0.082551
0.0829664
0.0833166
0.0836012
0.0838203
0.0839743
0.0840638
0.0840897
0.0840528
0.083954
0.083794
0.0835739
0.0832954
0.0829606
0.0825716
0.0821308
0.0816402
0.0811023
0.0805202
0.0798973
0.0792373
0.078544
0.0778214
0.0770735
0.0763052
0.0755217
0.0747284
0.0739312
0.0731361
0.0723496
0.0715783
0.0708294
0.0701106
0.0694296
0.0687943
0.0682123
0.0676915
0.0672394
0.0668639
0.0665721
0.0663693
0.0662607
0.0662715
0.0664203
0.000540865
0.000588861
0.000520802
0.000345385
8.53745e-05
-0.000252385
-0.000663676
-0.00114268
-0.00168281
-0.00227633
-0.00291573
-0.00359358
-0.00430229
-0.00503495
-0.00578417
-0.00654333
-0.0073059
-0.00806575
-0.00881716
-0.00955534
-0.0102751
-0.0109716
-0.0116411
-0.0122794
-0.0128831
-0.0134482
-0.0139723
-0.0144526
-0.0148864
-0.0152716
-0.0156059
-0.0158876
-0.0161151
-0.016287
-0.0164022
-0.0164596
-0.0164585
-0.0163981
-0.0162776
-0.0160969
-0.0158559
-0.0155543
-0.0151922
-0.0147698
-0.014287
-0.013744
-0.0131413
-0.0124794
-0.0117591
-0.0109811
-0.0101465
-0.00925643
-0.00831213
-0.00731472
-0.00626524
-0.00516495
-0.00401525
-0.00281725
-0.00157215
-0.000281616
0.00105261
0.00242893
0.00384563
0.00530087
0.00679273
0.00831912
0.00987822
0.0114683
0.0130872
0.0147326
0.0164024
0.0180946
0.0198068
0.0215371
0.0232829
0.0250421
0.0268127
0.0285928
0.0303799
0.0321717
0.0339658
0.0357599
0.0375515
0.0393385
0.0411184
0.0428887
0.0446472
0.0463918
0.0481204
0.0498303
0.051519
0.0531841
0.0548236
0.0564352
0.0580168
0.0595662
0.0610812
0.0625597
0.0639999
0.0653998
0.0667574
0.0680703
0.0693367
0.0705548
0.0717231
0.0728403
0.0739047
0.0749151
0.0758699
0.0767679
0.0776079
0.0783889
0.0791098
0.0797696
0.0803676
0.0809034
0.0813768
0.0817875
0.082135
0.0824189
0.0826394
0.082797
0.0828924
0.0829263
0.0828996
0.0828131
0.0826675
0.0824641
0.0822044
0.0818907
0.0815249
0.0811091
0.0806455
0.0801364
0.0795848
0.0789943
0.0783684
0.0777105
0.0770244
0.0763142
0.0755845
0.0748403
0.0740868
0.0733293
0.0725737
0.0718257
0.0710918
0.0703788
0.0696937
0.0690437
0.0684357
0.0678768
0.0673738
0.0669339
0.0665645
0.0662727
0.0660639
0.0659439
0.0659365
0.0660593
0.00100723
0.00101025
0.000911033
0.00071541
0.000442558
9.94176e-05
-0.00031026
-0.000781065
-0.0013068
-0.00188137
-0.0024976
-0.00314843
-0.00382734
-0.00452767
-0.00524313
-0.00596757
-0.00669477
-0.00741898
-0.00813503
-0.00883805
-0.00952317
-0.0101863
-0.0108231
-0.0114301
-0.0120039
-0.012541
-0.0130383
-0.0134935
-0.0139042
-0.0142678
-0.0145824
-0.0148464
-0.0150582
-0.0152164
-0.0153196
-0.015367
-0.0153578
-0.0152911
-0.0151666
-0.0149839
-0.0147426
-0.0144426
-0.014084
-0.013667
-0.0131913
-0.0126573
-0.0120653
-0.0114158
-0.0107096
-0.00994737
-0.0091302
-0.00825928
-0.00733556
-0.00636011
-0.00533412
-0.00425873
-0.00313508
-0.00196435
-0.000747797
0.000512957
0.00181618
0.00316036
0.00454389
0.00596488
0.00742134
0.00891148
0.0104336
0.0119859
0.0135662
0.0151724
0.0168025
0.0184543
0.0201258
0.0218147
0.0235188
0.0252359
0.0269642
0.0287018
0.0304462
0.032195
0.0339461
0.0356972
0.037446
0.03919
0.040927
0.0426547
0.0443709
0.0460738
0.0477609
0.0494297
0.0510777
0.0527029
0.0543031
0.0558762
0.0574201
0.0589326
0.0604115
0.0618551
0.0632614
0.0646286
0.0659544
0.0672368
0.0684738
0.069664
0.070806
0.0718981
0.072939
0.0739272
0.0748615
0.0757406
0.0765634
0.0773289
0.078036
0.0786837
0.0792714
0.0797989
0.080266
0.0806722
0.0810169
0.0813
0.0815217
0.0816825
0.0817832
0.0818245
0.0818071
0.0817317
0.0815993
0.081411
0.0811685
0.0808738
0.080529
0.0801358
0.0796964
0.0792132
0.0786893
0.0781278
0.0775322
0.0769058
0.0762519
0.0755747
0.0748787
0.0741686
0.0734494
0.0727261
0.0720037
0.0712879
0.0705848
0.0699009
0.0692426
0.0686163
0.0680284
0.0674851
0.0669928
0.0665582
0.0661881
0.0658894
0.0656676
0.0655285
0.0654921
0.0655724
0.00157805
0.00152634
0.00138884
0.00116749
0.000875952
0.000521334
0.00010687
-0.000362112
-0.000880647
-0.00144306
-0.00204287
-0.00267398
-0.00333002
-0.00400484
-0.00469306
-0.00538874
-0.00608628
-0.00678048
-0.00746618
-0.00813891
-0.0087943
-0.00942806
-0.0100361
-0.0106156
-0.0111627
-0.0116745
-0.012148
-0.0125807
-0.0129702
-0.0133144
-0.0136112
-0.0138591
-0.0140565
-0.014202
-0.0142945
-0.0143328
-0.0143162
-0.0142439
-0.0141157
-0.013931
-0.0136896
-0.0133913
-0.0130363
-0.0126243
-0.0121554
-0.0116299
-0.011048
-0.0104102
-0.00971725
-0.00896998
-0.0081694
-0.0073165
-0.00641226
-0.00545765
-0.00445386
-0.00340198
-0.00230295
-0.00115796
3.15434e-05
0.001264
0.00253793
0.0038518
0.00520383
0.00659223
0.00801522
0.00947107
0.0109581
0.0124746
0.0140183
0.0155874
0.0171797
0.0187934
0.0204263
0.022076
0.0237405
0.0254178
0.0271062
0.0288035
0.0305073
0.0322155
0.0339259
0.0356364
0.0373445
0.0390479
0.0407444
0.0424318
0.0441082
0.0457715
0.0474194
0.0490493
0.050659
0.0522465
0.0538097
0.0553465
0.0568547
0.0583323
0.0597773
0.0611879
0.0625623
0.0638986
0.0651945
0.066448
0.0676575
0.0688215
0.0699386
0.0710071
0.0720257
0.0729931
0.0739081
0.0747695
0.0755761
0.076327
0.0770209
0.0776572
0.0782352
0.0787549
0.079216
0.0796178
0.0799599
0.080242
0.0804646
0.0806283
0.0807338
0.0807818
0.0807727
0.0807074
0.0805868
0.0804123
0.0801853
0.0799078
0.0795817
0.0792087
0.078791
0.078331
0.0778317
0.0772961
0.0767272
0.0761283
0.0755026
0.074854
0.0741871
0.0735064
0.0728165
0.0721217
0.071427
0.0707376
0.0700593
0.0693982
0.0687602
0.0681511
0.0675765
0.0670422
0.0665541
0.0661183
0.0657412
0.0654291
0.0651875
0.0650219
0.064947
0.064972
0.00224144
0.00212808
0.00194613
0.00169344
0.00137795
0.00100582
0.000580992
0.000107431
-0.000409857
-0.000966102
-0.00155605
-0.00217348
-0.00281276
-0.00346847
-0.00413506
-0.00480751
-0.00548088
-0.00614991
-0.00680996
-0.00745689
-0.00808668
-0.00869495
-0.00927833
-0.00983336
-0.0103572
-0.0108465
-0.0112987
-0.0117113
-0.0120819
-0.0124087
-0.0126895
-0.0129229
-0.0131072
-0.0132413
-0.013324
-0.0133542
-0.013331
-0.0132539
-0.0131223
-0.0129359
-0.0126945
-0.0123981
-0.0120465
-0.0116394
-0.0111769
-0.0106594
-0.0100872
-0.00946049
-0.0087801
-0.00804702
-0.00726216
-0.0064263
-0.00554042
-0.00460563
-0.00362289
-0.00259309
-0.0015173
-0.000396761
0.00076713
0.0019729
0.00321912
0.00450423
0.00582645
0.00718399
0.00857528
0.00999872
0.0114526
0.0129351
0.0144442
0.0159781
0.0175349
0.0191125
0.0207086
0.0223212
0.0239484
0.0255881
0.0272386
0.0288978
0.0305633
0.0322331
0.0339052
0.0355772
0.0372469
0.0389119
0.0405701
0.0422196
0.0438583
0.0454843
0.0470951
0.0486884
0.0502619
0.0518139
0.0533423
0.0548448
0.0563193
0.0577641
0.0591772
0.0605568
0.0619012
0.0632083
0.0644761
0.0657025
0.0668861
0.0680254
0.0691191
0.0701653
0.0711629
0.0721107
0.0730076
0.0738524
0.0746438
0.0753807
0.0760624
0.0766879
0.0772569
0.0777692
0.0782244
0.078622
0.0789614
0.0792425
0.0794658
0.0796321
0.0797419
0.0797958
0.0797942
0.0797379
0.0796279
0.0794657
0.0792526
0.0789904
0.0786809
0.0783257
0.0779273
0.0774879
0.0770104
0.0764975
0.075952
0.0753768
0.0747752
0.0741513
0.0735093
0.0728535
0.072188
0.0715169
0.0708446
0.0701761
0.069517
0.068873
0.0682494
0.0676515
0.0670843
0.066553
0.0660631
0.0656202
0.0652303
0.064899
0.0646313
0.0644325
0.0643112
0.0642714
0.00298618
0.00280545
0.00257437
0.00228573
0.00194099
0.00154627
0.00110524
0.000621607
9.98814e-05
-0.000456106
-0.00104118
-0.0016505
-0.00227874
-0.00292039
-0.00357089
-0.00422538
-0.00487916
-0.00552757
-0.00616648
-0.00679175
-0.00739967
-0.00798632
-0.00854837
-0.00908233
-0.00958582
-0.0100556
-0.0104889
-0.0108837
-0.0112377
-0.0115489
-0.0118156
-0.012036
-0.0122088
-0.0123328
-0.0124067
-0.0124295
-0.0124005
-0.0123191
-0.0121847
-0.011997
-0.011756
-0.0114614
-0.011113
-0.0107106
-0.0102545
-0.00974465
-0.00918139
-0.00856522
-0.00789692
-0.00717731
-0.00640723
-0.00558751
-0.00471908
-0.00380298
-0.00284007
-0.00183114
-0.000777288
0.000320128
0.00145978
0.00264037
0.00386045
0.00511834
0.00641229
0.00774071
0.00910212
0.0104949
0.0119174
0.0133678
0.0148443
0.016345
0.0178682
0.0194116
0.0209731
0.0225507
0.0241426
0.0257469
0.0273617
0.0289848
0.0306142
0.0322478
0.0338837
0.0355195
0.0371529
0.0387817
0.0404039
0.0420177
0.0436211
0.0452119
0.0467878
0.0483465
0.0498861
0.0514047
0.0529002
0.0543704
0.0558134
0.0572273
0.0586105
0.059961
0.0612771
0.0625568
0.0637981
0.0649991
0.0661584
0.0672746
0.0683462
0.0693716
0.0703495
0.0712789
0.0721587
0.0729878
0.0737649
0.0744888
0.0751588
0.0757742
0.0763347
0.0768401
0.0772898
0.0776832
0.0780199
0.0782999
0.0785238
0.0786922
0.0788058
0.0788647
0.0788697
0.0788214
0.0787209
0.0785696
0.0783688
0.0781201
0.077825
0.0774856
0.077104
0.0766827
0.0762242
0.0757309
0.0752054
0.0746505
0.0740695
0.0734664
0.0728454
0.0722102
0.0715647
0.0709125
0.0702577
0.0696052
0.0689602
0.0683279
0.0677134
0.0671212
0.066556
0.0660223
0.0655252
0.06507
0.0646619
0.0643059
0.0640068
0.0637691
0.0635951
0.0634837
0.00380099
0.00354894
0.00326467
0.00293618
0.00255793
0.00213595
0.00167382
0.00117516
0.000643391
8.27896e-05
-0.000502885
-0.00110911
-0.00173084
-0.00236345
-0.00300262
-0.00364361
-0.00428232
-0.00491469
-0.0055364
-0.00614381
-0.00673352
-0.00730215
-0.00784584
-0.00836203
-0.00884774
-0.00930051
-0.0097177
-0.0100969
-0.0104363
-0.0107339
-0.0109881
-0.0111972
-0.0113598
-0.0114748
-0.0115409
-0.0115573
-0.0115232
-0.0114381
-0.0113014
-0.0111129
-0.0108724
-0.0105797
-0.0102345
-0.00983677
-0.00938659
-0.00888408
-0.00832947
-0.00772331
-0.00706647
-0.00635967
-0.00560357
-0.00479908
-0.0039472
-0.00304875
-0.00210446
-0.00111519
-8.21261e-05
0.000993453
0.00211032
0.00326718
0.00446255
0.00569472
0.00696199
0.00826297
0.00959626
0.0109602
0.012353
0.0137732
0.0152189
0.0166885
0.0181799
0.0196911
0.0212199
0.0227646
0.0243233
0.0258942
0.0274753
0.0290645
0.0306599
0.0322596
0.0338614
0.0354631
0.0370623
0.038657
0.0402455
0.0418258
0.0433959
0.0449536
0.0464967
0.0480231
0.0495308
0.0510181
0.0524828
0.0539228
0.055336
0.0567211
0.0580762
0.0593996
0.0606891
0.0619431
0.0631595
0.0643368
0.0654734
0.066568
0.0676189
0.0686246
0.069584
0.0704962
0.0713602
0.0721746
0.0729382
0.0736498
0.0743089
0.0749148
0.0754674
0.0759661
0.0764105
0.0767998
0.0771338
0.0774126
0.0776369
0.0778072
0.0779238
0.077987
0.0779975
0.0779562
0.0778641
0.0777224
0.0775323
0.0772951
0.0770127
0.076687
0.0763201
0.0759143
0.0754721
0.0749954
0.0744868
0.0739489
0.0733851
0.0727994
0.0721955
0.0715771
0.0709473
0.0703095
0.0696677
0.0690265
0.068391
0.0677658
0.0671554
0.066564
0.0659956
0.0654547
0.0649458
0.0644735
0.0640426
0.0636572
0.0633217
0.0630405
0.0628094
0.0626216
0.00467565
0.0043491
0.00400848
0.00363688
0.00322151
0.00276821
0.00228096
0.00176253
0.00121636
0.000646096
5.50534e-05
-0.000552573
-0.00117246
-0.00180047
-0.00243228
-0.00306411
-0.00369197
-0.004312
-0.00492034
-0.00551365
-0.00608868
-0.00664222
-0.00717073
-0.0076719
-0.0081427
-0.00858084
-0.00898403
-0.00935
-0.00967687
-0.00996276
-0.010206
-0.0104051
-0.0105589
-0.010666
-0.0107254
-0.0107363
-0.0106979
-0.0106096
-0.0104711
-0.0102821
-0.0100424
-0.00975159
-0.0094096
-0.00901644
-0.00857205
-0.0080765
-0.00753016
-0.00693365
-0.00628768
-0.00559291
-0.00485006
-0.00406005
-0.00322377
-0.0023419
-0.00141511
-0.000444385
0.000569053
0.00162406
0.00271953
0.00385408
0.00502609
0.00623397
0.00747622
0.00875145
0.0100583
0.0113949
0.0127599
0.0141516
0.0155685
0.0170087
0.0184702
0.019951
0.0214492
0.022963
0.0244905
0.02603
0.0275793
0.0291367
0.0307003
0.032268
0.0338379
0.0354074
0.0369746
0.0385375
0.0400944
0.0416434
0.0431822
0.0447089
0.0462213
0.0477174
0.0491955
0.0506535
0.0520893
0.0535009
0.0548865
0.0562447
0.0575737
0.0588715
0.0601362
0.0613661
0.0625594
0.0637146
0.0648301
0.0659044
0.0669359
0.0679233
0.0688655
0.0697617
0.0706108
0.0714115
0.0721623
0.0728625
0.0735113
0.0741084
0.0746535
0.0751459
0.0755851
0.0759704
0.0763017
0.0765793
0.0768037
0.0769753
0.0770943
0.077161
0.0771761
0.0771408
0.077056
0.0769226
0.0767416
0.0765144
0.0762427
0.0759286
0.0755743
0.0751818
0.0747531
0.0742903
0.0737955
0.0732717
0.0727221
0.0721504
0.0715602
0.0709546
0.0703365
0.0697091
0.0690763
0.0684424
0.067812
0.0671894
0.0665787
0.0659835
0.0654076
0.064855
0.0643299
0.0638365
0.0633785
0.0629597
0.0625841
0.0622558
0.0619642
0.0616968
0.00560088
0.0051976
0.00479785
0.0043802
0.00392462
0.00343679
0.00292057
0.00237861
0.001814
0.00122973
0.000629317
1.59714e-05
-0.000606268
-0.0012336
-0.00186222
-0.00248858
-0.00310921
-0.00372063
-0.00431928
-0.00490174
-0.00546529
-0.00600667
-0.00652314
-0.00701173
-0.00747027
-0.0078963
-0.00828764
-0.00864241
-0.00895863
-0.00923449
-0.00946844
-0.00965905
-0.0098051
-0.00990542
-0.00995909
-0.00996529
-0.0099233
-0.00983254
-0.00969271
-0.00950355
-0.0092647
-0.00897597
-0.00863727
-0.00824851
-0.00780964
-0.0073208
-0.00678245
-0.00619512
-0.00555941
-0.00487601
-0.00414574
-0.00336944
-0.00254777
-0.0016814
-0.000771125
0.000182075
0.0011771
0.00221287
0.00328821
0.0044017
0.00555173
0.00673683
0.00795559
0.00920663
0.0104885
0.0117996
0.0131384
0.0145035
0.0158933
0.0173059
0.0187393
0.0201916
0.021661
0.0231458
0.0246442
0.0261541
0.0276737
0.0292013
0.0307351
0.0322729
0.0338128
0.0353523
0.0368895
0.0384227
0.0399502
0.0414698
0.0429794
0.044477
0.0459609
0.0474289
0.0488792
0.0503099
0.0517188
0.0531041
0.054464
0.0557972
0.0571018
0.0583758
0.0596174
0.0608249
0.0619968
0.0631314
0.0642272
0.0652826
0.0662961
0.0672664
0.0681927
0.0690741
0.0699094
0.0706971
0.0714361
0.0721255
0.0727648
0.0733538
0.0738917
0.0743781
0.0748122
0.0751936
0.0755223
0.0757987
0.0760229
0.0761952
0.0763157
0.0763851
0.0764042
0.076374
0.0762954
0.0761689
0.0759956
0.0757766
0.075514
0.0752098
0.074866
0.0744844
0.0740667
0.073615
0.0731316
0.0726191
0.0720807
0.07152
0.0709399
0.0703435
0.0697335
0.0691129
0.0684853
0.0678549
0.0672257
0.0666018
0.0659865
0.0653834
0.0647959
0.0642278
0.0636828
0.0631645
0.062676
0.0622203
0.0618014
0.0614234
0.0610689
0.06072
0.00656769
0.00608609
0.00562551
0.00515919
0.00466072
0.00413515
0.00358701
0.00301829
0.00243144
0.00182984
0.00121613
0.000593251
-3.50535e-05
-0.000665331
-0.00129453
-0.00191908
-0.00253594
-0.00314204
-0.00373419
-0.00430909
-0.00486405
-0.00539614
-0.00590302
-0.00638178
-0.00683039
-0.00724661
-0.00762837
-0.00797386
-0.00828117
-0.00854862
-0.00877475
-0.00895819
-0.00909767
-0.00919228
-0.00924116
-0.0092435
-0.00919861
-0.00910596
-0.00896524
-0.00877616
-0.00853842
-0.00825187
-0.00791642
-0.00753194
-0.00709842
-0.00661608
-0.00608533
-0.00550669
-0.00488072
-0.00420811
-0.00348968
-0.0027262
-0.00191825
-0.00106645
-0.000171661
0.000765099
0.00174284
0.00276057
0.00381704
0.00491072
0.00604009
0.00720385
0.00840064
0.00962902
0.0108875
0.0121746
0.0134889
0.0148291
0.0161935
0.0175802
0.0189873
0.020413
0.0218555
0.0233132
0.0247841
0.0262663
0.0277582
0.029258
0.030764
0.0322739
0.0337857
0.0352972
0.0368065
0.0383121
0.0398121
0.0413043
0.0427867
0.0442574
0.0457147
0.0471567
0.0485813
0.0499865
0.0513704
0.0527313
0.0540675
0.0553776
0.0566595
0.0579114
0.0591316
0.0603184
0.0614705
0.0625862
0.0636638
0.0647016
0.0656984
0.0666529
0.0675646
0.0684323
0.0692547
0.0700304
0.0707582
0.0714377
0.0720683
0.0726496
0.0731807
0.0736612
0.0740904
0.0744682
0.0747944
0.0750693
0.0752929
0.0754653
0.0755869
0.0756584
0.0756807
0.0756547
0.0755811
0.0754603
0.0752931
0.075081
0.0748258
0.0745297
0.0741944
0.0738214
0.0734126
0.0729696
0.0724949
0.0719912
0.0714613
0.0709085
0.0703354
0.0697449
0.0691396
0.0685224
0.0678968
0.0672664
0.0666349
0.0660058
0.0653823
0.0647675
0.0641649
0.0635778
0.0630095
0.0624631
0.061941
0.0614455
0.060981
0.0605511
0.060132
0.0597004
0.00756774
0.00700678
0.0064837
0.00596698
0.00542341
0.00485771
0.00427476
0.00367611
0.0030643
0.00244191
0.00181152
0.00117603
0.00053829
-9.8563e-05
-0.000731583
-0.00135763
-0.00197398
-0.00257793
-0.00316647
-0.00373668
-0.00428577
-0.00481145
-0.00531097
-0.00578239
-0.00622335
-0.00663188
-0.00700617
-0.00734422
-0.00764429
-0.00790486
-0.00812453
-0.00830201
-0.00843612
-0.00852606
-0.00857108
-0.00857033
-0.00852313
-0.00842913
-0.00828796
-0.00809923
-0.00786272
-0.00757844
-0.00724625
-0.00686594
-0.00643756
-0.00596146
-0.005438
-0.00486755
-0.00425071
-0.0035883
-0.00288106
-0.00212956
-0.00133434
-0.000496193
0.000383994
0.00130536
0.00226702
0.00326789
0.00430659
0.00538166
0.00649175
0.00763562
0.00881186
0.010019
0.0112555
0.0125202
0.0138118
0.0151287
0.0164693
0.0178318
0.0192142
0.0206151
0.0220326
0.023465
0.0249103
0.0263667
0.0278328
0.0293068
0.0307868
0.0322706
0.0337562
0.0352417
0.0367252
0.0382052
0.0396797
0.0411464
0.0426035
0.0440493
0.0454822
0.0469
0.0483008
0.0496825
0.0510433
0.0523818
0.0536962
0.0549849
0.0562459
0.0574773
0.0586777
0.0598456
0.0609796
0.0620778
0.0631385
0.0641601
0.0651415
0.0660818
0.0669799
0.067835
0.0686454
0.0694099
0.0701276
0.0707979
0.0714205
0.0719945
0.0725192
0.072994
0.0734186
0.0737929
0.0741167
0.0743898
0.0746124
0.0747845
0.0749066
0.0749797
0.0750045
0.0749818
0.074912
0.0747956
0.0746334
0.0744267
0.0741775
0.0738877
0.0735589
0.0731927
0.0727904
0.0723541
0.0718859
0.0713884
0.0708644
0.0703165
0.0697475
0.0691599
0.0685563
0.0679396
0.0673128
0.0666793
0.0660421
0.0654045
0.0647693
0.0641396
0.0635187
0.0629095
0.0623149
0.0617374
0.061179
0.0606417
0.0601294
0.0596461
0.0591613
0.0586465
0.00859337
0.00795251
0.00736594
0.00679734
0.00620637
0.00559857
0.00497838
0.00434741
0.00370784
0.00306182
0.00241198
0.00176059
0.0011105
0.000464126
-0.000175769
-0.000806465
-0.00142531
-0.00202992
-0.00261759
-0.00318565
-0.00373155
-0.00425319
-0.00474797
-0.00521416
-0.00564965
-0.0060526
-0.0064212
-0.00675351
-0.00704796
-0.00730312
-0.0075176
-0.00769021
-0.00782011
-0.00790644
-0.0079484
-0.00794524
-0.00789644
-0.00780158
-0.0076602
-0.00747204
-0.00723705
-0.00695511
-0.00662602
-0.00624977
-0.00582647
-0.00535634
-0.00483967
-0.00427691
-0.00366876
-0.00301595
-0.00231908
-0.00157869
-0.000795413
2.9915e-05
0.000896493
0.00180358
0.00275025
0.00373528
0.00475733
0.00581505
0.00690722
0.00803258
0.0091896
0.0103768
0.011593
0.0128369
0.0141072
0.0154024
0.0167209
0.0180607
0.0194204
0.0207982
0.0221925
0.0236012
0.0250226
0.0264552
0.0278973
0.0293474
0.0308033
0.0322628
0.0337241
0.0351856
0.0366454
0.0381016
0.0395523
0.0409955
0.0424294
0.0438523
0.0452627
0.0466582
0.0480369
0.049397
0.0507368
0.0520547
0.0533491
0.0546181
0.0558598
0.0570725
0.0582549
0.0594056
0.060523
0.0616051
0.0626502
0.063657
0.0646245
0.0655517
0.0664375
0.0672808
0.0680801
0.0688344
0.0695429
0.0702049
0.0708199
0.0713871
0.0719056
0.0723751
0.0727954
0.0731663
0.0734876
0.0737588
0.07398
0.0741514
0.0742738
0.0743478
0.0743745
0.0743541
0.0742872
0.074174
0.0740154
0.0738129
0.0735683
0.0732832
0.0729593
0.0725978
0.0722003
0.0717685
0.0713047
0.0708112
0.0702904
0.069745
0.0691774
0.06859
0.0679854
0.0673662
0.0667354
0.0660957
0.0654499
0.0648007
0.0641509
0.0635035
0.0628613
0.0622272
0.0616037
0.0609927
0.0603959
0.0598146
0.0592531
0.0587151
0.058164
0.0575662
0.00963771
0.00891668
0.00826585
0.00764401
0.00700453
0.00635244
0.005693
0.00502754
0.00435764
0.00368568
0.00301376
0.00234375
0.00167847
0.0010199
0.000370347
-0.000267745
-0.000891856
-0.00149971
-0.00208904
-0.00265737
-0.00320256
-0.00372223
-0.00421469
-0.00467781
-0.00510989
-0.00550913
-0.00587367
-0.0062019
-0.00649223
-0.00674324
-0.00695377
-0.00712277
-0.00724943
-0.00733302
-0.00737278
-0.00736794
-0.00731805
-0.00722271
-0.0070815
-0.00689421
-0.00666081
-0.00638121
-0.00605526
-0.00568297
-0.00526451
-0.00480002
-0.00428977
-0.00373428
-0.00313428
-0.00249039
-0.00180311
-0.00107304
-0.000300946
0.000512436
0.00136642
0.00226027
0.00319296
0.00416319
0.00516973
0.00621139
0.00728696
0.00839507
0.00953418
0.0107029
0.0119002
0.0131249
0.0143755
0.0156505
0.0169483
0.0182673
0.0196059
0.0209625
0.022335
0.0237218
0.0251212
0.0265317
0.0279518
0.0293797
0.0308131
0.0322502
0.0336893
0.0351287
0.0365666
0.0380009
0.0394297
0.0408512
0.0422638
0.0436659
0.0450555
0.0464306
0.047789
0.0491294
0.05045
0.0517493
0.0530253
0.0542762
0.0555002
0.056696
0.0578621
0.0589972
0.0600995
0.0611668
0.0621978
0.0631912
0.0641461
0.0650614
0.0659359
0.0667684
0.0675577
0.0683028
0.0690029
0.0696573
0.0702652
0.0708259
0.0713386
0.0718032
0.0722195
0.0725872
0.0729058
0.073175
0.0733946
0.0735651
0.0736872
0.0737618
0.0737895
0.0737707
0.0737056
0.0735946
0.0734387
0.0732391
0.0729977
0.072716
0.0723952
0.0720368
0.0716422
0.0712132
0.0707517
0.07026
0.0697402
0.0691948
0.068626
0.0680364
0.0674283
0.0668042
0.0661666
0.065518
0.0648607
0.0641973
0.0635303
0.0628625
0.0621967
0.0615353
0.0608805
0.060234
0.0595968
0.05897
0.058358
0.0577646
0.057147
0.0564666
0.0106943
0.00989287
0.00917718
0.00850134
0.00781213
0.00711432
0.00641396
0.00571193
0.00500985
0.00430976
0.00361317
0.00292231
0.00223928
0.00156599
0.00090426
0.000256389
-0.000375396
-0.000988966
-0.00158229
-0.00215322
-0.00269979
-0.00321984
-0.00371193
-0.00417404
-0.00460459
-0.00500181
-0.0053639
-0.00568948
-0.00597706
-0.00622523
-0.00643292
-0.00659943
-0.00672395
-0.00680564
-0.00684384
-0.006838
-0.00678761
-0.00669214
-0.00655136
-0.0063652
-0.00613356
-0.00585634
-0.0055335
-0.0051651
-0.00475123
-0.00429202
-0.00378781
-0.00323918
-0.00264677
-0.00201108
-0.00133266
-0.000612225
0.000149485
0.000951853
0.00179425
0.00267584
0.0035955
0.00455199