/*--------------------------------*- C++ -*----------------------------------*\
  =========                 |
  \\      /  F ield         | OpenFOAM: The Open Source CFD Toolbox
   \\    /   O peration     | Website:  https://openfoam.org
    \\  /    A nd           | Version:  7
     \\/     M anipulation  |
\*---------------------------------------------------------------------------*/
FoamFile
{
    version     2.0;
    format      ascii;
    class       surfaceScalarField;
    location    "0.075";
    object      phi;
}
// * * * * * * * * * * * * * * * * * * * * * * * * * * * * * * * * * * * * * //

dimensions      [0 3 -1 0 0 0 0];

internalField   nonuniform List<scalar> 
50880
(
6.04212e-12
-6.05614e-12
3.68769e-11
-3.08392e-11
8.42601e-11
-4.73745e-11
1.37649e-10
-5.33929e-11
1.89182e-10
-5.15322e-11
2.33461e-10
-4.42784e-11
2.66743e-10
-3.32801e-11
2.8657e-10
-1.98308e-11
2.9134e-10
-4.76748e-12
2.80107e-10
1.12322e-11
2.52335e-10
2.77735e-11
2.07837e-10
4.44946e-11
1.46676e-10
6.11646e-11
6.90623e-11
7.76151e-11
-2.46512e-11
9.37168e-11
-1.33997e-10
1.09342e-10
-2.58425e-10
1.24429e-10
-3.97361e-10
1.38935e-10
-5.502e-10
1.52842e-10
-7.16261e-10
1.6606e-10
-8.94892e-10
1.78632e-10
-1.08541e-09
1.90518e-10
-1.28718e-09
2.01762e-10
-1.49948e-09
2.12309e-10
-1.72169e-09
2.22211e-10
-1.95311e-09
2.31417e-10
-2.19309e-09
2.39981e-10
-2.44096e-09
2.47874e-10
-2.69608e-09
2.55125e-10
-2.95782e-09
2.61743e-10
-3.22556e-09
2.67735e-10
-3.49864e-09
2.73079e-10
-3.77645e-09
2.77807e-10
-4.05839e-09
2.81942e-10
-4.34386e-09
2.85466e-10
-4.63226e-09
2.8841e-10
-4.92305e-09
2.9078e-10
-5.21562e-09
2.92574e-10
-5.50943e-09
2.93802e-10
-5.80392e-09
2.94493e-10
-6.09857e-09
2.94642e-10
-6.39282e-09
2.9425e-10
-6.68615e-09
2.93336e-10
-6.97806e-09
2.91908e-10
-7.26803e-09
2.89972e-10
-7.55557e-09
2.87547e-10
-7.84022e-09
2.84653e-10
-8.12152e-09
2.81299e-10
-8.399e-09
2.77489e-10
-8.67224e-09
2.73234e-10
-8.94079e-09
2.68555e-10
-9.20427e-09
2.63474e-10
-9.46227e-09
2.58006e-10
-9.71444e-09
2.52163e-10
-9.9604e-09
2.45964e-10
-1.01998e-08
2.39419e-10
-1.04323e-08
2.32531e-10
-1.06576e-08
2.25303e-10
-1.08754e-08
2.17745e-10
-1.10853e-08
2.09869e-10
-1.12869e-08
2.01684e-10
-1.14801e-08
1.932e-10
-1.16646e-08
1.84436e-10
-1.184e-08
1.75412e-10
-1.20061e-08
1.66145e-10
-1.21628e-08
1.56651e-10
-1.23097e-08
1.46941e-10
-1.24468e-08
1.37031e-10
-1.25737e-08
1.26945e-10
-1.26904e-08
1.16695e-10
-1.27967e-08
1.06292e-10
-1.28924e-08
9.57526e-11
-1.29775e-08
8.50914e-11
-1.30519e-08
7.43195e-11
-1.31153e-08
6.34507e-11
-1.31678e-08
5.24899e-11
-1.32092e-08
4.14391e-11
-1.32396e-08
3.03136e-11
-1.32587e-08
1.91323e-11
-1.32666e-08
7.89939e-12
-1.32632e-08
-3.37932e-12
-1.32485e-08
-1.4678e-11
-1.32226e-08
-2.5973e-11
-1.31853e-08
-3.72581e-11
-1.31368e-08
-4.85237e-11
-1.3077e-08
-5.97513e-11
-1.30061e-08
-7.0929e-11
-1.2924e-08
-8.20448e-11
-1.2831e-08
-9.3073e-11
-1.2727e-08
-1.0399e-10
-1.26122e-08
-1.14785e-10
-1.24867e-08
-1.25445e-10
-1.23508e-08
-1.35945e-10
-1.22045e-08
-1.46259e-10
-1.20482e-08
-1.56375e-10
-1.18819e-08
-1.66287e-10
-1.17059e-08
-1.75976e-10
-1.15205e-08
-1.85421e-10
-1.13259e-08
-1.94611e-10
-1.11224e-08
-2.03528e-10
-1.09102e-08
-2.12151e-10
-1.06897e-08
-2.20461e-10
-1.04613e-08
-2.28444e-10
-1.02252e-08
-2.36084e-10
-9.98186e-09
-2.43361e-10
-9.7316e-09
-2.50255e-10
-9.47484e-09
-2.5676e-10
-9.21197e-09
-2.62872e-10
-8.9434e-09
-2.68575e-10
-8.66955e-09
-2.73846e-10
-8.39089e-09
-2.78667e-10
-8.10786e-09
-2.83025e-10
-7.82095e-09
-2.86908e-10
-7.53065e-09
-2.903e-10
-7.23747e-09
-2.93186e-10
-6.94192e-09
-2.95551e-10
-6.64453e-09
-2.97382e-10
-6.34587e-09
-2.98664e-10
-6.04649e-09
-2.99381e-10
-5.74696e-09
-2.99525e-10
-5.44788e-09
-2.99086e-10
-5.14982e-09
-2.98058e-10
-4.85339e-09
-2.96426e-10
-4.55921e-09
-2.94183e-10
-4.26789e-09
-2.91325e-10
-3.98004e-09
-2.87851e-10
-3.69628e-09
-2.83752e-10
-3.41727e-09
-2.79012e-10
-3.14365e-09
-2.73617e-10
-2.87609e-09
-2.67565e-10
-2.61523e-09
-2.6086e-10
-2.36172e-09
-2.53509e-10
-2.11621e-09
-2.4551e-10
-1.87935e-09
-2.36862e-10
-1.65178e-09
-2.27564e-10
-1.43416e-09
-2.1762e-10
-1.22712e-09
-2.07042e-10
-1.03128e-09
-1.95841e-10
-8.4725e-10
-1.84032e-10
-6.75616e-10
-1.71635e-10
-5.16944e-10
-1.58673e-10
-3.71771e-10
-1.45174e-10
-2.40601e-10
-1.3117e-10
-1.23893e-10
-1.16708e-10
-2.20505e-11
-1.01841e-10
6.45915e-11
-8.66414e-11
1.3578e-10
-7.11879e-11
1.91356e-10
-5.55753e-11
2.31287e-10
-3.99303e-11
2.55704e-10
-2.44165e-11
2.64959e-10
-9.25462e-12
2.59705e-10
5.25443e-12
2.40985e-10
1.87209e-11
2.10371e-10
3.06143e-11
1.70178e-10
4.01925e-11
1.23756e-10
4.64225e-11
7.58795e-11
4.7876e-11
3.32766e-11
4.26025e-11
5.19304e-12
2.80832e-11
5.19264e-12
2.75773e-11
-3.36397e-11
9.61732e-11
-9.94377e-11
1.90558e-10
-1.41761e-10
2.93028e-10
-1.5586e-10
3.8848e-10
-1.46983e-10
4.65141e-10
-1.20941e-10
5.14308e-10
-8.24484e-11
5.29617e-10
-3.51361e-11
5.06665e-10
1.81839e-11
4.42445e-10
7.54506e-11
3.35145e-10
1.35075e-10
1.83733e-10
1.95907e-10
-1.20951e-11
2.56984e-10
-2.52143e-10
3.17668e-10
-5.35822e-10
3.77393e-10
-8.62244e-10
4.3577e-10
-1.23026e-09
4.92439e-10
-1.63851e-09
5.47185e-10
-2.08551e-09
5.99838e-10
-2.56969e-09
6.50242e-10
-3.08938e-09
6.98325e-10
-3.64284e-09
7.43977e-10
-4.22829e-09
7.87214e-10
-4.84393e-09
8.2795e-10
-5.48795e-09
8.66216e-10
-6.15847e-09
9.01944e-10
-6.85371e-09
9.35215e-10
-7.57179e-09
9.65956e-10
-8.3109e-09
9.94233e-10
-9.06921e-09
1.02005e-09
-9.8449e-09
1.04342e-09
-1.06362e-08
1.06437e-09
-1.14413e-08
1.08293e-09
-1.22585e-08
1.09912e-09
-1.3086e-08
1.11298e-09
-1.39221e-08
1.12455e-09
-1.47652e-08
1.13387e-09
-1.56136e-08
1.14095e-09
-1.64657e-08
1.14585e-09
-1.73198e-08
1.14861e-09
-1.81744e-08
1.14925e-09
-1.90279e-08
1.1478e-09
-1.98789e-08
1.14432e-09
-2.07259e-08
1.13884e-09
-2.15673e-08
1.13141e-09
-2.24018e-08
1.12208e-09
-2.32281e-08
1.1109e-09
-2.40447e-08
1.09792e-09
-2.48504e-08
1.08317e-09
-2.56439e-08
1.06671e-09
-2.64239e-08
1.04859e-09
-2.71893e-08
1.02888e-09
-2.79389e-08
1.00763e-09
-2.86717e-08
9.84893e-10
-2.93864e-08
9.60727e-10
-3.00822e-08
9.35172e-10
-3.07579e-08
9.08259e-10
-3.14126e-08
8.80025e-10
-3.20454e-08
8.50516e-10
-3.26553e-08
8.19775e-10
-3.32415e-08
7.87844e-10
-3.3803e-08
7.54775e-10
-3.43392e-08
7.20629e-10
-3.48493e-08
6.85468e-10
-3.53325e-08
6.49346e-10
-3.57882e-08
6.12321e-10
-3.62157e-08
5.74451e-10
-3.66144e-08
5.35791e-10
-3.69839e-08
4.96404e-10
-3.73236e-08
4.5635e-10
-3.76329e-08
4.15676e-10
-3.79116e-08
3.74437e-10
-3.81592e-08
3.32696e-10
-3.83754e-08
2.905e-10
-3.85599e-08
2.47886e-10
-3.87123e-08
2.04899e-10
-3.88324e-08
1.61586e-10
-3.89201e-08
1.17993e-10
-3.89751e-08
7.4168e-11
-3.89974e-08
3.01652e-11
-3.89868e-08
-1.3962e-11
-3.89433e-08
-5.81573e-11
-3.88669e-08
-1.02353e-10
-3.87577e-08
-1.46486e-10
-3.86157e-08
-1.90507e-10
-3.84411e-08
-2.34367e-10
-3.8234e-08
-2.78007e-10
-3.79947e-08
-3.21361e-10
-3.77234e-08
-3.64361e-10
-3.74205e-08
-4.0694e-10
-3.70862e-08
-4.49028e-10
-3.67211e-08
-4.90555e-10
-3.63256e-08
-5.31453e-10
-3.59002e-08
-5.71658e-10
-3.54455e-08
-6.11106e-10
-3.4962e-08
-6.49737e-10
-3.44505e-08
-6.87492e-10
-3.39116e-08
-7.24306e-10
-3.33461e-08
-7.60113e-10
-3.27548e-08
-7.94845e-10
-3.21385e-08
-8.28434e-10
-3.14982e-08
-8.60816e-10
-3.08347e-08
-8.91928e-10
-3.01491e-08
-9.21704e-10
-2.94424e-08
-9.50077e-10
-2.87157e-08
-9.76987e-10
-2.797e-08
-1.00238e-09
-2.72067e-08
-1.02621e-09
-2.64268e-08
-1.04843e-09
-2.56317e-08
-1.06895e-09
-2.48227e-08
-1.08773e-09
-2.4001e-08
-1.1047e-09
-2.31681e-08
-1.11981e-09
-2.23254e-08
-1.133e-09
-2.14744e-08
-1.14422e-09
-2.06165e-08
-1.15342e-09
-1.97534e-08
-1.16053e-09
-1.88865e-08
-1.16552e-09
-1.80176e-08
-1.16832e-09
-1.71482e-08
-1.16891e-09
-1.628e-08
-1.16723e-09
-1.54148e-08
-1.16326e-09
-1.45543e-08
-1.15695e-09
-1.37002e-08
-1.14828e-09
-1.28543e-08
-1.13722e-09
-1.20184e-08
-1.12376e-09
-1.11943e-08
-1.10785e-09
-1.03839e-08
-1.08947e-09
-9.58887e-09
-1.0686e-09
-8.81121e-09
-1.04522e-09
-8.05274e-09
-1.01934e-09
-7.31529e-09
-9.90952e-10
-6.60073e-09
-9.60076e-10
-5.91087e-09
-9.26719e-10
-5.24755e-09
-8.90893e-10
-4.61254e-09
-8.52624e-10
-4.00763e-09
-8.11953e-10
-3.43454e-09
-7.68938e-10
-2.89492e-09
-7.23645e-10
-2.3904e-09
-6.76159e-10
-1.92249e-09
-6.26583e-10
-1.49263e-09
-5.75036e-10
-1.10213e-09
-5.2167e-10
-7.52165e-10
-4.66672e-10
-4.43736e-10
-4.10271e-10
-1.77631e-10
-3.52747e-10
4.56199e-11
-2.9444e-10
2.25805e-10
-2.3576e-10
3.63108e-10
-1.77232e-10
4.58212e-10
-1.1952e-10
5.12433e-10
-6.34753e-11
5.27891e-10
-1.02029e-11
5.07736e-10
3.88775e-11
4.56429e-10
8.19219e-11
3.80111e-10
1.16513e-10
2.87018e-10
1.39515e-10
1.87929e-10
1.46966e-10
9.64132e-11
1.34118e-10
2.83147e-11
9.61805e-11
3.35075e-11
3.9104e-11
-7.27349e-11
1.25895e-10
-1.86231e-10
2.38215e-10
-2.54084e-10
3.54123e-10
-2.71769e-10
4.548e-10
-2.47668e-10
5.25174e-10
-1.9131e-10
5.53476e-10
-1.10751e-10
5.3078e-10
-1.24434e-11
4.50522e-10
9.84426e-11
3.08048e-10
2.17926e-10
1.0026e-10
3.42864e-10
-1.74682e-10
4.70856e-10
-5.17675e-10
5.99977e-10
-9.2877e-10
7.28764e-10
-1.40742e-09
8.56043e-10
-1.9525e-09
9.80852e-10
-2.56255e-09
1.1025e-09
-3.23577e-09
1.22041e-09
-3.97005e-09
1.33412e-09
-4.76312e-09
1.44332e-09
-5.61249e-09
1.54769e-09
-6.51563e-09
1.64712e-09
-7.46981e-09
1.74139e-09
-8.47228e-09
1.83042e-09
-9.52019e-09
1.91414e-09
-1.06107e-08
1.9925e-09
-1.1741e-08
2.06545e-09
-1.29081e-08
2.13303e-09
-1.41091e-08
2.19522e-09
-1.53411e-08
2.25204e-09
-1.66012e-08
2.30354e-09
-1.78865e-08
2.34972e-09
-1.91943e-08
2.39067e-09
-2.05216e-08
2.42643e-09
-2.18657e-08
2.45707e-09
-2.32238e-08
2.48265e-09
-2.45932e-08
2.50326e-09
-2.59712e-08
2.51896e-09
-2.73552e-08
2.52984e-09
-2.87425e-08
2.53598e-09
-3.01307e-08
2.53746e-09
-3.15173e-08
2.53435e-09
-3.28997e-08
2.52676e-09
-3.42756e-08
2.51477e-09
-3.56427e-08
2.49849e-09
-3.69986e-08
2.47802e-09
-3.83412e-08
2.45347e-09
-3.96682e-08
2.42494e-09
-4.09776e-08
2.39252e-09
-4.22672e-08
2.35632e-09
-4.35351e-08
2.31647e-09
-4.47792e-08
2.27307e-09
-4.59979e-08
2.22624e-09
-4.71891e-08
2.17611e-09
-4.83511e-08
2.12277e-09
-4.94822e-08
2.06632e-09
-5.05808e-08
2.00686e-09
-5.16453e-08
1.94449e-09
-5.26741e-08
1.8793e-09
-5.36657e-08
1.81141e-09
-5.46188e-08
1.74091e-09
-5.55319e-08
1.66792e-09
-5.64039e-08
1.59256e-09
-5.72334e-08
1.51495e-09
-5.80192e-08
1.43522e-09
-5.87604e-08
1.35348e-09
-5.94558e-08
1.26985e-09
-6.01045e-08
1.18447e-09
-6.07055e-08
1.09745e-09
-6.12581e-08
1.00891e-09
-6.17614e-08
9.18978e-10
-6.22147e-08
8.27766e-10
-6.26174e-08
7.35395e-10
-6.29689e-08
6.41979e-10
-6.32686e-08
5.47629e-10
-6.35162e-08
4.52448e-10
-6.37111e-08
3.56542e-10
-6.38532e-08
2.60032e-10
-6.3942e-08
1.63038e-10
-6.39775e-08
6.56678e-11
-6.39595e-08
-3.19546e-11
-6.3888e-08
-1.29693e-10
-6.37629e-08
-2.27416e-10
-6.35844e-08
-3.25e-10
-6.33526e-08
-4.22315e-10
-6.30678e-08
-5.19231e-10
-6.27302e-08
-6.15617e-10
-6.23402e-08
-7.11343e-10
-6.18983e-08
-8.06264e-10
-6.1405e-08
-9.00232e-10
-6.08609e-08
-9.93105e-10
-6.02667e-08
-1.08474e-09
-5.96232e-08
-1.17499e-09
-5.89311e-08
-1.2637e-09
-5.81915e-08
-1.35075e-09
-5.74052e-08
-1.43599e-09
-5.65734e-08
-1.51929e-09
-5.56972e-08
-1.60051e-09
-5.47779e-08
-1.67949e-09
-5.38166e-08
-1.7561e-09
-5.28148e-08
-1.83019e-09
-5.1774e-08
-1.90163e-09
-5.06957e-08
-1.97026e-09
-4.95815e-08
-2.03595e-09
-4.8433e-08
-2.09856e-09
-4.7252e-08
-2.15796e-09
-4.60404e-08
-2.21402e-09
-4.48e-08
-2.2666e-09
-4.35328e-08
-2.3156e-09
-4.22409e-08
-2.36087e-09
-4.09264e-08
-2.40227e-09
-3.95914e-08
-2.43969e-09
-3.82382e-08
-2.473e-09
-3.68691e-08
-2.50209e-09
-3.54865e-08
-2.52682e-09
-3.40928e-08
-2.54709e-09
-3.26906e-08
-2.56279e-09
-3.12823e-08
-2.5738e-09
-2.98706e-08
-2.58002e-09
-2.84581e-08
-2.58137e-09
-2.70476e-08
-2.57776e-09
-2.56417e-08
-2.56909e-09
-2.42434e-08
-2.55531e-09
-2.28553e-08
-2.53633e-09
-2.14805e-08
-2.51211e-09
-2.01216e-08
-2.48258e-09
-1.87818e-08
-2.4477e-09
-1.74638e-08
-2.40741e-09
-1.61708e-08
-2.36169e-09
-1.49055e-08
-2.31051e-09
-1.36709e-08
-2.25386e-09
-1.24701e-08
-2.19176e-09
-1.1306e-08
-2.12424e-09
-1.01814e-08
-2.05133e-09
-9.09917e-09
-1.97308e-09
-8.06225e-09
-1.88955e-09
-7.07335e-09
-1.80086e-09
-6.13516e-09
-1.70712e-09
-5.25029e-09
-1.60852e-09
-4.42121e-09
-1.50524e-09
-3.65027e-09
-1.39752e-09
-2.93965e-09
-1.28566e-09
-2.2913e-09
-1.17001e-09
-1.70697e-09
-1.051e-09
-1.18808e-09
-9.29162e-10
-7.35708e-10
-8.0512e-10
-3.50496e-10
-6.7965e-10
-3.25638e-11
-5.53691e-10
2.18616e-10
-4.28411e-10
4.04356e-10
-3.0526e-10
5.26936e-10
-1.86055e-10
5.89825e-10
-7.30904e-11
5.97951e-10
3.07508e-11
5.58039e-10
1.21835e-10
4.78964e-10
1.95588e-10
3.72141e-10
2.46338e-10
2.5187e-10
2.67237e-10
1.3549e-10
2.50497e-10
4.32768e-11
1.88394e-10
7.67846e-11
4.20482e-11
-1.14786e-10
1.32071e-10
-2.76252e-10
2.4285e-10
-3.64867e-10
3.49207e-10
-3.78118e-10
4.29998e-10
-3.28456e-10
4.68149e-10
-2.29466e-10
4.50046e-10
-9.2647e-11
3.6509e-10
7.2516e-11
2.05218e-10
2.58315e-10
-3.54484e-11
4.58591e-10
-3.61043e-10
6.68458e-10
-7.74138e-10
8.83947e-10
-1.27614e-09
1.10199e-09
-1.86736e-09
1.31998e-09
-2.54736e-09
1.53604e-09
-3.31499e-09
1.74848e-09
-4.16852e-09
1.95603e-09
-5.10577e-09
2.15766e-09
-6.1242e-09
2.35255e-09
-7.22096e-09
2.54007e-09
-8.39293e-09
2.71967e-09
-9.63681e-09
2.891e-09
-1.09491e-08
3.05368e-09
-1.23263e-08
3.20759e-09
-1.37645e-08
3.35241e-09
-1.52602e-08
3.48816e-09
-1.68094e-08
3.61467e-09
-1.84083e-08
3.73194e-09
-2.0053e-08
3.83993e-09
-2.17397e-08
3.93869e-09
-2.34644e-08
4.02823e-09
-2.52233e-08
4.1086e-09
-2.70125e-08
4.17989e-09
-2.88282e-08
4.24217e-09
-3.06667e-08
4.29556e-09
-3.25242e-08
4.34015e-09
-3.4397e-08
4.37608e-09
-3.62815e-08
4.40347e-09
-3.81741e-08
4.42245e-09
-4.00713e-08
4.43315e-09
-4.19696e-08
4.43573e-09
-4.38656e-08
4.43033e-09
-4.57559e-08
4.41712e-09
-4.76374e-08
4.39625e-09
-4.95068e-08
4.36789e-09
-5.1361e-08
4.33222e-09
-5.3197e-08
4.28942e-09
-5.50117e-08
4.23966e-09
-5.68023e-08
4.18311e-09
-5.85659e-08
4.11998e-09
-6.02999e-08
4.05044e-09
-6.20015e-08
3.97469e-09
-6.36682e-08
3.89292e-09
-6.52974e-08
3.80533e-09
-6.68868e-08
3.7121e-09
-6.84339e-08
3.61342e-09
-6.99365e-08
3.50946e-09
-7.13924e-08
3.4004e-09
-7.27995e-08
3.28642e-09
-7.41558e-08
3.16772e-09
-7.54594e-08
3.04448e-09
-7.67084e-08
2.9169e-09
-7.7901e-08
2.78518e-09
-7.90356e-08
2.64952e-09
-8.01105e-08
2.51015e-09
-8.11243e-08
2.36725e-09
-8.20754e-08
2.22104e-09
-8.29627e-08
2.07173e-09
-8.37848e-08
1.91954e-09
-8.45405e-08
1.76466e-09
-8.52289e-08
1.6073e-09
-8.58488e-08
1.44767e-09
-8.63994e-08
1.28599e-09
-8.68798e-08
1.12246e-09
-8.72895e-08
9.57256e-10
-8.76276e-08
7.90599e-10
-8.78938e-08
6.22692e-10
-8.80875e-08
4.53734e-10
-8.82084e-08
2.83934e-10
-8.82562e-08
1.13511e-10
-8.82309e-08
-5.73171e-11
-8.81322e-08
-2.2833e-10
-8.79603e-08
-3.993e-10
-8.77153e-08
-5.69999e-10
-8.73974e-08
-7.40202e-10
-8.7007e-08
-9.09682e-10
-8.65444e-08
-1.07821e-09
-8.60102e-08
-1.24553e-09
-8.54051e-08
-1.41141e-09
-8.47297e-08
-1.57562e-09
-8.39849e-08
-1.73789e-09
-8.31716e-08
-1.89799e-09
-8.2291e-08
-2.05566e-09
-8.1344e-08
-2.21065e-09
-8.03321e-08
-2.36272e-09
-7.92564e-08
-2.51163e-09
-7.81186e-08
-2.65714e-09
-7.69201e-08
-2.79899e-09
-7.56626e-08
-2.93693e-09
-7.4348e-08
-3.07073e-09
-7.29781e-08
-3.20013e-09
-7.15548e-08
-3.32488e-09
-7.00804e-08
-3.44475e-09
-6.85568e-08
-3.55948e-09
-6.69866e-08
-3.66883e-09
-6.53719e-08
-3.77258e-09
-6.37155e-08
-3.87049e-09
-6.20197e-08
-3.96234e-09
-6.02874e-08
-4.0479e-09
-5.85214e-08
-4.12694e-09
-5.67244e-08
-4.19924e-09
-5.48995e-08
-4.26457e-09
-5.30498e-08
-4.32274e-09
-5.11783e-08
-4.37353e-09
-4.92884e-08
-4.41673e-09
-4.73834e-08
-4.45215e-09
-4.54666e-08
-4.47959e-09
-4.35415e-08
-4.49889e-09
-4.16117e-08
-4.50986e-09
-3.96807e-08
-4.51234e-09
-3.77522e-08
-4.50619e-09
-3.58301e-08
-4.49127e-09
-3.39179e-08
-4.46744e-09
-3.20197e-08
-4.43459e-09
-3.01392e-08
-4.39261e-09
-2.82803e-08
-4.34143e-09
-2.64471e-08
-4.28095e-09
-2.46434e-08
-4.21112e-09
-2.28732e-08
-4.13187e-09
-2.11405e-08
-4.0432e-09
-1.94493e-08
-3.9451e-09
-1.78034e-08
-3.83759e-09
-1.62069e-08
-3.72073e-09
-1.46637e-08
-3.59459e-09
-1.31775e-08
-3.45929e-09
-1.17521e-08
-3.31496e-09
-1.03911e-08
-3.16181e-09
-9.09816e-09
-3.00008e-09
-7.87662e-09
-2.83007e-09
-6.72971e-09
-2.65214e-09
-5.66048e-09
-2.46675e-09
-4.67171e-09
-2.27443e-09
-3.76591e-09
-2.07582e-09
-2.94522e-09
-1.87169e-09
-2.21139e-09
-1.66299e-09
-1.56567e-09
-1.45084e-09
-1.00872e-09
-1.2366e-09
-5.405e-10
-1.02191e-09
-1.60121e-10
-8.08791e-10
1.34321e-10
-5.997e-10
3.45935e-10
-3.9767e-10
4.79284e-10
-2.06439e-10
5.40653e-10
-3.06179e-11
5.38367e-10
1.24122e-10
4.83123e-10
2.50833e-10
3.88336e-10
3.41126e-10
2.70474e-10
3.85099e-10
1.49386e-10
3.71585e-10
4.89105e-11
2.8887e-10
1.25695e-10
3.92696e-11
-1.54056e-10
1.20259e-10
-3.57238e-10
2.13472e-10
-4.58089e-10
2.91768e-10
-4.5641e-10
3.32627e-10
-3.69317e-10
3.17811e-10
-2.14648e-10
2.32636e-10
-7.46975e-12
6.54779e-11
2.3967e-10
-1.92711e-10
5.16502e-10
-5.48671e-10
8.14555e-10
-1.0072e-09
1.12699e-09
-1.57151e-09
1.44826e-09
-2.24335e-09
1.77382e-09
-3.02337e-09
2.10001e-09
-3.91117e-09
2.42384e-09
-4.90555e-09
2.74286e-09
-6.00465e-09
3.05513e-09
-7.20601e-09
3.35902e-09
-8.5067e-09
3.65324e-09
-9.90336e-09
3.93674e-09
-1.13924e-08
4.20869e-09
-1.29698e-08
4.46839e-09
-1.46315e-08
4.71536e-09
-1.6373e-08
4.94916e-09
-1.81901e-08
5.16947e-09
-2.0078e-08
5.37608e-09
-2.20322e-08
5.56882e-09
-2.40478e-08
5.7476e-09
-2.61202e-08
5.91235e-09
-2.82446e-08
6.06307e-09
-3.04162e-08
6.1998e-09
-3.26302e-08
6.32259e-09
-3.48818e-08
6.43154e-09
-3.71664e-08
6.52675e-09
-3.94792e-08
6.60837e-09
-4.18156e-08
6.67656e-09
-4.4171e-08
6.73149e-09
-4.65409e-08
6.77334e-09
-4.89208e-08
6.80232e-09
-5.13063e-08
6.81863e-09
-5.3693e-08
6.82248e-09
-5.60768e-08
6.8141e-09
-5.84534e-08
6.79374e-09
-6.08188e-08
6.76164e-09
-6.3169e-08
6.71806e-09
-6.55e-08
6.66325e-09
-6.7808e-08
6.59748e-09
-7.00894e-08
6.52102e-09
-7.23404e-08
6.43415e-09
-7.45576e-08
6.33714e-09
-7.67374e-08
6.23028e-09
-7.88766e-08
6.11386e-09
-8.09718e-08
5.98816e-09
-8.302e-08
5.85349e-09
-8.5018e-08
5.71011e-09
-8.69629e-08
5.55832e-09
-8.88519e-08
5.39841e-09
-9.06821e-08
5.23065e-09
-9.2451e-08
5.05533e-09
-9.4156e-08
4.87274e-09
-9.57947e-08
4.68318e-09
-9.73648e-08
4.48696e-09
-9.8864e-08
4.28437e-09
-1.0029e-07
4.07573e-09
-1.01641e-07
3.86135e-09
-1.02916e-07
3.64155e-09
-1.04111e-07
3.41664e-09
-1.05227e-07
3.18694e-09
-1.0626e-07
2.95277e-09
-1.0721e-07
2.71444e-09
-1.08075e-07
2.47229e-09
-1.08853e-07
2.22662e-09
-1.09545e-07
1.97775e-09
-1.10149e-07
1.726e-09
-1.10663e-07
1.47169e-09
-1.11088e-07
1.21514e-09
-1.11422e-07
9.56653e-10
-1.11665e-07
6.96574e-10
-1.11816e-07
4.35223e-10
-1.11875e-07
1.72927e-10
-1.11843e-07
-8.99712e-11
-1.11718e-07
-3.5312e-10
-1.11501e-07
-6.16175e-10
-1.11192e-07
-8.78794e-10
-1.10792e-07
-1.14062e-09
-1.103e-07
-1.4013e-09
-1.09718e-07
-1.66048e-09
-1.09046e-07
-1.91778e-09
-1.08284e-07
-2.17284e-09
-1.07434e-07
-2.42529e-09
-1.06498e-07
-2.67476e-09
-1.05475e-07
-2.92086e-09
-1.04367e-07
-3.16321e-09
-1.03176e-07
-3.40144e-09
-1.01904e-07
-3.63518e-09
-1.00552e-07
-3.86404e-09
-9.9121e-08
-4.08766e-09
-9.76143e-08
-4.30564e-09
-9.60336e-08
-4.51762e-09
-9.43812e-08
-4.72321e-09
-9.26593e-08
-4.92204e-09
-9.08704e-08
-5.11372e-09
-8.90173e-08
-5.2979e-09
-8.71026e-08
-5.47418e-09
-8.51292e-08
-5.64221e-09
-8.31001e-08
-5.80163e-09
-8.10185e-08
-5.95208e-09
-7.88877e-08
-6.0932e-09
-7.67109e-08
-6.22466e-09
-7.44917e-08
-6.3461e-09
-7.22338e-08
-6.45719e-09
-6.99408e-08
-6.55759e-09
-6.76165e-08
-6.64698e-09
-6.5265e-08
-6.72505e-09
-6.28903e-08
-6.79148e-09
-6.04964e-08
-6.84599e-09
-5.80877e-08
-6.88828e-09
-5.56685e-08
-6.91808e-09
-5.32433e-08
-6.93514e-09
-5.08164e-08
-6.93921e-09
-4.83925e-08
-6.93007e-09
-4.59763e-08
-6.9075e-09
-4.35724e-08
-6.87132e-09
-4.11856e-08
-6.82136e-09
-3.88208e-08
-6.75745e-09
-3.64827e-08
-6.67948e-09
-3.41763e-08
-6.58734e-09
-3.19065e-08
-6.48093e-09
-2.96782e-08
-6.36019e-09
-2.74963e-08
-6.22512e-09
-2.53657e-08
-6.07572e-09
-2.32912e-08
-5.91204e-09
-2.12778e-08
-5.73419e-09
-1.93301e-08
-5.54229e-09
-1.74528e-08
-5.33654e-09
-1.56506e-08
-5.11719e-09
-1.39278e-08
-4.88457e-09
-1.22888e-08
-4.63907e-09
-1.07377e-08
-4.38118e-09
-9.27837e-09
-4.11149e-09
-7.91441e-09
-3.83071e-09
-6.64914e-09
-3.5397e-09
-5.48548e-09
-3.23947e-09
-4.42594e-09
-2.93124e-09
-3.47247e-09
-2.61646e-09
-2.62644e-09
-2.29687e-09
-1.8885e-09
-1.97454e-09
-1.25844e-09
-1.65198e-09
-7.35036e-10
-1.33219e-09
-3.15917e-10
-1.01882e-09
2.68534e-12
-7.16273e-10
2.26145e-10
-4.29898e-10
3.61702e-10
-1.66173e-10
4.18746e-10
6.70782e-11
4.09128e-10
2.60452e-10
3.47482e-10
4.02771e-10
2.5161e-10
4.80971e-10
1.42984e-10
4.80211e-10
4.77547e-11
3.84099e-10
1.7345e-10
3.24562e-11
-1.86512e-10
9.48371e-11
-4.19619e-10
1.57301e-10
-5.2055e-10
1.92169e-10
-4.91282e-10
1.76464e-10
-3.53607e-10
9.14373e-11
-1.29626e-10
-7.80896e-11
1.62058e-10
-3.44313e-10
5.05897e-10
-7.16767e-10
8.88956e-10
-1.20274e-09
1.30052e-09
-1.80752e-09
1.73178e-09
-2.53466e-09
2.17539e-09
-3.38621e-09
2.62537e-09
-4.36299e-09
3.07679e-09
-5.46466e-09
3.52551e-09
-6.69004e-09
3.96824e-09
-8.03706e-09
4.40215e-09
-9.50305e-09
4.825e-09
-1.10848e-08
5.23495e-09
-1.27784e-08
5.63041e-09
-1.45799e-08
6.01021e-09
-1.64848e-08
6.37328e-09
-1.84884e-08
6.71889e-09
-2.05855e-08
7.04632e-09
-2.27712e-08
7.35517e-09
-2.50401e-08
7.64497e-09
-2.73868e-08
7.91553e-09
-2.98058e-08
8.16661e-09
-3.22916e-08
8.39812e-09
-3.48385e-08
8.61002e-09
-3.74411e-08
8.8023e-09
-4.00935e-08
8.97505e-09
-4.27903e-08
9.12835e-09
-4.55259e-08
9.26235e-09
-4.82947e-08
9.37722e-09
-5.10914e-08
9.47317e-09
-5.39103e-08
9.55042e-09
-5.67462e-08
9.60923e-09
-5.95937e-08
9.64986e-09
-6.24477e-08
9.67261e-09
-6.5303e-08
9.67776e-09
-6.81545e-08
9.66565e-09
-7.09974e-08
9.63658e-09
-7.38266e-08
9.59092e-09
-7.66376e-08
9.52901e-09
-7.94255e-08
9.45121e-09
-8.2186e-08
9.3579e-09
-8.49144e-08
9.24945e-09
-8.76065e-08
9.12625e-09
-9.0258e-08
8.98869e-09
-9.28649e-08
8.83715e-09
-9.54231e-08
8.67205e-09
-9.79287e-08
8.49379e-09
-1.00378e-07
8.30277e-09
-1.02767e-07
8.0994e-09
-1.05093e-07
7.88408e-09
-1.07352e-07
7.65723e-09
-1.0954e-07
7.41925e-09
-1.11656e-07
7.17054e-09
-1.13694e-07
6.91153e-09
-1.15654e-07
6.64264e-09
-1.17531e-07
6.3643e-09
-1.19324e-07
6.07693e-09
-1.21029e-07
5.78098e-09
-1.22645e-07
5.47688e-09
-1.24168e-07
5.16507e-09
-1.25598e-07
4.84601e-09
-1.26931e-07
4.52014e-09
-1.28166e-07
4.1879e-09
-1.29301e-07
3.84976e-09
-1.30335e-07
3.50615e-09
-1.31266e-07
3.15754e-09
-1.32093e-07
2.80438e-09
-1.32814e-07
2.44711e-09
-1.33428e-07
2.0862e-09
-1.33935e-07
1.72211e-09
-1.34334e-07
1.3553e-09
-1.34623e-07
9.86228e-10
-1.34804e-07
6.15368e-10
-1.34874e-07
2.43198e-10
-1.34834e-07
-1.29797e-10
-1.34684e-07
-5.0313e-10
-1.34424e-07
-8.76308e-10
-1.34054e-07
-1.24883e-09
-1.33574e-07
-1.62021e-09
-1.32986e-07
-1.98992e-09
-1.32289e-07
-2.35747e-09
-1.31484e-07
-2.72232e-09
-1.30573e-07
-3.08398e-09
-1.29556e-07
-3.4419e-09
-1.28436e-07
-3.79557e-09
-1.27212e-07
-4.14444e-09
-1.25887e-07
-4.48799e-09
-1.24463e-07
-4.82568e-09
-1.22941e-07
-5.15699e-09
-1.21324e-07
-5.48137e-09
-1.19613e-07
-5.7983e-09
-1.17812e-07
-6.10724e-09
-1.15922e-07
-6.40765e-09
-1.13946e-07
-6.69899e-09
-1.11887e-07
-6.98075e-09
-1.09748e-07
-7.25238e-09
-1.07533e-07
-7.51337e-09
-1.05244e-07
-7.76317e-09
-1.02885e-07
-8.00128e-09
-1.00459e-07
-8.22719e-09
-9.79711e-08
-8.44039e-09
-9.54239e-08
-8.64039e-09
-9.28219e-08
-8.82668e-09
-9.01692e-08
-8.99879e-09
-8.74701e-08
-9.15625e-09
-8.47291e-08
-9.29857e-09
-8.19508e-08
-9.42533e-09
-7.91398e-08
-9.53606e-09
-7.63009e-08
-9.63034e-09
-7.34391e-08
-9.70777e-09
-7.05595e-08
-9.76793e-09
-6.76671e-08
-9.81046e-09
-6.47672e-08
-9.835e-09
-6.18652e-08
-9.84121e-09
-5.89665e-08
-9.82878e-09
-5.60766e-08
-9.79742e-09
-5.32011e-08
-9.74686e-09
-5.03456e-08
-9.67688e-09
-4.75158e-08
-9.58727e-09
-4.47174e-08
-9.47785e-09
-4.19562e-08
-9.3485e-09
-3.92381e-08
-9.1991e-09
-3.65687e-08
-9.02959e-09
-3.39538e-08
-8.83996e-09
-3.13993e-08
-8.63026e-09
-2.89107e-08
-8.40057e-09
-2.64939e-08
-8.15106e-09
-2.41542e-08
-7.88194e-09
-2.18972e-08
-7.59351e-09
-1.97283e-08
-7.28616e-09
-1.76525e-08
-6.96037e-09
-1.56748e-08
-6.61674e-09
-1.38e-08
-6.25599e-09
-1.20325e-08
-5.879e-09
-1.03764e-08
-5.48679e-09
-8.83552e-09
-5.0806e-09
-7.41309e-09
-4.6619e-09
-6.1119e-09
-4.23243e-09
-4.9341e-09
-3.79426e-09
-3.88115e-09
-3.34982e-09
-2.95365e-09
-2.90203e-09
-2.15129e-09
-2.45435e-09
-1.47259e-09
-2.01089e-09
-9.14828e-10
-1.57658e-09
-4.73776e-10
-1.15733e-09
-1.43519e-10
-7.60155e-10
8.37892e-11
-3.93481e-10
2.18184e-10
-6.73169e-11
2.7217e-10
2.06467e-10
2.61038e-10
4.13902e-10
2.03285e-10
5.38725e-10
1.21183e-10
5.62313e-10
4.18536e-11
4.63429e-10
2.15304e-10
2.29219e-11
-2.09433e-10
5.93807e-11
-4.56078e-10
8.06285e-11
-5.418e-10
5.9637e-11
-4.70291e-10
-2.62921e-11
-2.67675e-10
-1.95805e-10
3.98887e-11
-4.64123e-10
4.30375e-10
-8.4355e-10
8.85323e-10
-1.34385e-09
1.38926e-09
-1.97255e-09
1.92922e-09
-2.7351e-09
2.49432e-09
-3.6353e-09
3.0756e-09
-4.67536e-09
3.66543e-09
-5.85616e-09
4.25758e-09
-7.17741e-09
4.84677e-09
-8.6378e-09
5.42864e-09
-1.02352e-08
5.99954e-09
-1.19667e-08
6.55649e-09
-1.38287e-08
7.09694e-09
-1.58171e-08
7.61888e-09
-1.79275e-08
8.12055e-09
-2.01548e-08
8.60059e-09
-2.24938e-08
9.05787e-09
-2.49389e-08
9.49147e-09
-2.74844e-08
9.90068e-09
-3.01244e-08
1.02849e-08
-3.28527e-08
1.06438e-08
-3.56632e-08
1.09771e-08
-3.85495e-08
1.12845e-08
-4.15054e-08
1.15659e-08
-4.45245e-08
1.18214e-08
-4.76004e-08
1.2051e-08
-5.07268e-08
1.22547e-08
-5.38973e-08
1.24328e-08
-5.71055e-08
1.25855e-08
-6.03452e-08
1.27129e-08
-6.36103e-08
1.28155e-08
-6.68944e-08
1.28934e-08
-7.01917e-08
1.29471e-08
-7.3496e-08
1.29769e-08
-7.68015e-08
1.29833e-08
-8.01024e-08
1.29665e-08
-8.33929e-08
1.29271e-08
-8.66676e-08
1.28656e-08
-8.99209e-08
1.27823e-08
-9.31474e-08
1.26777e-08
-9.63419e-08
1.25524e-08
-9.94992e-08
1.24068e-08
-1.02614e-07
1.22415e-08
-1.05683e-07
1.20569e-08
-1.08699e-07
1.18535e-08
-1.11659e-07
1.1632e-08
-1.14558e-07
1.13929e-08
-1.17392e-07
1.11366e-08
-1.20156e-07
1.08638e-08
-1.22847e-07
1.05749e-08
-1.2546e-07
1.02706e-08
-1.27992e-07
9.95127e-09
-1.30439e-07
9.61762e-09
-1.32798e-07
9.27014e-09
-1.35065e-07
8.90942e-09
-1.37237e-07
8.53602e-09
-1.3931e-07
8.15052e-09
-1.41283e-07
7.75351e-09
-1.43151e-07
7.34555e-09
-1.44914e-07
6.92726e-09
-1.46567e-07
6.49923e-09
-1.48109e-07
6.06205e-09
-1.49537e-07
5.61632e-09
-1.5085e-07
5.16264e-09
-1.52046e-07
4.70163e-09
-1.53122e-07
4.23389e-09
-1.54078e-07
3.76003e-09
-1.54911e-07
3.28066e-09
-1.55621e-07
2.79641e-09
-1.56207e-07
2.30789e-09
-1.56667e-07
1.81572e-09
-1.57002e-07
1.32054e-09
-1.57209e-07
8.22988e-10
-1.5729e-07
3.23699e-10
-1.57243e-07
-1.76672e-10
-1.57069e-07
-6.77468e-10
-1.56767e-07
-1.17803e-09
-1.56338e-07
-1.67768e-09
-1.55783e-07
-2.17577e-09
-1.55101e-07
-2.67159e-09
-1.54294e-07
-3.16447e-09
-1.53363e-07
-3.65371e-09
-1.52308e-07
-4.13863e-09
-1.51131e-07
-4.61852e-09
-1.49834e-07
-5.09267e-09
-1.48418e-07
-5.56038e-09
-1.46885e-07
-6.02093e-09
-1.45237e-07
-6.47361e-09
-1.43477e-07
-6.91771e-09
-1.41605e-07
-7.35251e-09
-1.39626e-07
-7.77731e-09
-1.37542e-07
-8.19138e-09
-1.35356e-07
-8.594e-09
-1.3307e-07
-8.98448e-09
-1.30689e-07
-9.36209e-09
-1.28215e-07
-9.72613e-09
-1.25653e-07
-1.00759e-08
-1.23005e-07
-1.04107e-08
-1.20277e-07
-1.07298e-08
-1.17471e-07
-1.10326e-08
-1.14594e-07
-1.13183e-08
-1.11648e-07
-1.15864e-08
-1.08638e-07
-1.18361e-08
-1.0557e-07
-1.20669e-08
-1.02448e-07
-1.2278e-08
-9.9278e-08
-1.24689e-08
-9.60644e-08
-1.26389e-08
-9.28129e-08
-1.27875e-08
-8.95291e-08
-1.29142e-08
-8.62186e-08
-1.30183e-08
-8.28872e-08
-1.30993e-08
-7.95409e-08
-1.31568e-08
-7.61856e-08
-1.31903e-08
-7.28275e-08
-1.31993e-08
-6.94728e-08
-1.31835e-08
-6.61278e-08
-1.31424e-08
-6.2799e-08
-1.30757e-08
-5.94927e-08
-1.29832e-08
-5.62155e-08
-1.28645e-08
-5.29739e-08
-1.27194e-08
-4.97745e-08
-1.25479e-08
-4.66239e-08
-1.23497e-08
-4.35288e-08
-1.21248e-08
-4.04956e-08
-1.18732e-08
-3.75309e-08
-1.15949e-08
-3.46412e-08
-1.12903e-08
-3.18329e-08
-1.09594e-08
-2.91123e-08
-1.06026e-08
-2.64854e-08
-1.02203e-08
-2.39585e-08
-9.81313e-09
-2.15371e-08
-9.38172e-09
-1.92269e-08
-8.92691e-09
-1.70332e-08
-8.4497e-09
-1.49609e-08
-7.95129e-09
-1.30146e-08
-7.43309e-09
-1.11984e-08
-6.89679e-09
-9.51598e-09
-6.34437e-09
-7.97025e-09
-5.77816e-09
-6.56359e-09
-5.20092e-09
-5.29753e-09
-4.61588e-09
-4.1727e-09
-4.02686e-09
-3.1887e-09
-3.43835e-09
-2.34391e-09
-2.85567e-09
-1.63539e-09
-2.2851e-09
-1.05865e-09
-1.73407e-09
-6.07465e-10
-1.21134e-09
-2.73682e-10
-7.27263e-10
-4.69688e-11
-2.94029e-10
8.54354e-11
7.40625e-11
1.39029e-10
3.60308e-10
1.32448e-10
5.45306e-10
8.80141e-11
6.06747e-10
3.26628e-11
5.18781e-10
2.47967e-10
1.14877e-11
-2.20925e-10
1.66935e-11
-4.61278e-10
-1.1332e-11
-5.13778e-10
-9.80949e-11
-3.83526e-10
-2.65321e-10
-1.00454e-10
-5.31003e-10
3.05575e-10
-9.10049e-10
8.09423e-10
-1.41455e-09
1.38982e-09
-2.05414e-09
2.02886e-09
-2.83632e-09
2.71139e-09
-3.76664e-09
3.42464e-09
-4.84883e-09
4.15779e-09
-6.08516e-09
4.90176e-09
-7.47649e-09
5.6489e-09
-9.02247e-09
6.39274e-09
-1.07217e-08
7.12787e-09
-1.25719e-08
7.84972e-09
-1.45699e-08
8.55448e-09
-1.67119e-08
9.23894e-09
-1.89935e-08
9.90045e-09
-2.14097e-08
1.05368e-08
-2.39552e-08
1.11461e-08
-2.66242e-08
1.17269e-08
-2.94107e-08
1.2278e-08
-3.23084e-08
1.27983e-08
-3.53107e-08
1.32873e-08
-3.8411e-08
1.37441e-08
-4.16023e-08
1.41684e-08
-4.48779e-08
1.456e-08
-4.82306e-08
1.49186e-08
-5.16534e-08
1.52442e-08
-5.51393e-08
1.55368e-08
-5.86811e-08
1.57965e-08
-6.22718e-08
1.60235e-08
-6.59043e-08
1.6218e-08
-6.95717e-08
1.63803e-08
-7.3267e-08
1.65107e-08
-7.69832e-08
1.66097e-08
-8.07137e-08
1.66776e-08
-8.44517e-08
1.67149e-08
-8.81906e-08
1.67222e-08
-9.19239e-08
1.66998e-08
-9.56452e-08
1.66484e-08
-9.93482e-08
1.65686e-08
-1.03027e-07
1.64608e-08
-1.06675e-07
1.63257e-08
-1.10286e-07
1.6164e-08
-1.13856e-07
1.59763e-08
-1.17377e-07