/*--------------------------------*- C++ -*----------------------------------*\
  =========                 |
  \\      /  F ield         | OpenFOAM: The Open Source CFD Toolbox
   \\    /   O peration     | Website:  https://openfoam.org
    \\  /    A nd           | Version:  7
     \\/     M anipulation  |
\*---------------------------------------------------------------------------*/
FoamFile
{
    version     2.0;
    format      ascii;
    class       volVectorField;
    location    "0.075";
    object      U;
}
// * * * * * * * * * * * * * * * * * * * * * * * * * * * * * * * * * * * * * //

dimensions      [0 1 -1 0 0 0 0];

internalField   nonuniform List<vector> 
25600
(
(1.39546e-07 -2.62162e-07 0)
(2.84963e-06 -2.00794e-06 0)
(9.32218e-06 -3.23516e-06 0)
(1.77047e-05 -3.74192e-06 0)
(2.63209e-05 -3.71273e-06 0)
(3.41435e-05 -3.33881e-06 0)
(4.04638e-05 -2.73721e-06 0)
(4.47886e-05 -1.99708e-06 0)
(4.68085e-05 -1.17193e-06 0)
(4.63242e-05 -3.0904e-07 0)
(4.32192e-05 5.764e-07 0)
(3.74438e-05 1.45726e-06 0)
(2.89889e-05 2.32788e-06 0)
(1.78788e-05 3.17031e-06 0)
(4.15853e-06 3.99211e-06 0)
(-1.21042e-05 4.77838e-06 0)
(-3.08258e-05 5.52527e-06 0)
(-5.19152e-05 6.24133e-06 0)
(-7.52827e-05 6.91639e-06 0)
(-0.00010082 7.5519e-06 0)
(-0.000128417 8.15086e-06 0)
(-0.000157975 8.70833e-06 0)
(-0.000189386 9.2324e-06 0)
(-0.000222535 9.72706e-06 0)
(-0.000257322 1.01788e-05 0)
(-0.000293639 1.06001e-05 0)
(-0.000331373 1.09877e-05 0)
(-0.000370427 1.13442e-05 0)
(-0.000410695 1.16684e-05 0)
(-0.000452064 1.1966e-05 0)
(-0.000494449 1.22351e-05 0)
(-0.000537741 1.24699e-05 0)
(-0.000581832 1.26791e-05 0)
(-0.000626635 1.28642e-05 0)
(-0.000672054 1.30196e-05 0)
(-0.000717987 1.31486e-05 0)
(-0.000764343 1.3251e-05 0)
(-0.000811034 1.33239e-05 0)
(-0.000857966 1.33703e-05 0)
(-0.000905051 1.33971e-05 0)
(-0.000952203 1.34031e-05 0)
(-0.000999337 1.33841e-05 0)
(-0.00104636 1.334e-05 0)
(-0.0010932 1.32713e-05 0)
(-0.00113977 1.31773e-05 0)
(-0.00118599 1.30599e-05 0)
(-0.00123179 1.29231e-05 0)
(-0.00127708 1.27673e-05 0)
(-0.0013218 1.25908e-05 0)
(-0.00136587 1.23925e-05 0)
(-0.00140923 1.21744e-05 0)
(-0.00145181 1.19403e-05 0)
(-0.00149354 1.16892e-05 0)
(-0.00153437 1.14208e-05 0)
(-0.00157424 1.11378e-05 0)
(-0.00161308 1.084e-05 0)
(-0.00165085 1.05275e-05 0)
(-0.00168749 1.02002e-05 0)
(-0.00172295 9.85668e-06 0)
(-0.00175717 9.49874e-06 0)
(-0.0017901 9.12716e-06 0)
(-0.0018217 8.7406e-06 0)
(-0.00185193 8.34077e-06 0)
(-0.00188072 7.9298e-06 0)
(-0.00190806 7.50786e-06 0)
(-0.00193389 7.07613e-06 0)
(-0.00195819 6.63494e-06 0)
(-0.00198091 6.18405e-06 0)
(-0.00200204 5.72621e-06 0)
(-0.00202153 5.26329e-06 0)
(-0.00203938 4.79402e-06 0)
(-0.00205555 4.31859e-06 0)
(-0.00207002 3.8389e-06 0)
(-0.00208278 3.35523e-06 0)
(-0.0020938 2.86749e-06 0)
(-0.00210308 2.3763e-06 0)
(-0.0021106 1.88145e-06 0)
(-0.00211634 1.38251e-06 0)
(-0.0021203 8.80609e-07 0)
(-0.00212246 3.7648e-07 0)
(-0.00212283 -1.30595e-07 0)
(-0.00212138 -6.40066e-07 0)
(-0.00211813 -1.14986e-06 0)
(-0.00211307 -1.65901e-06 0)
(-0.00210621 -2.16769e-06 0)
(-0.00209754 -2.67578e-06 0)
(-0.00208709 -3.18286e-06 0)
(-0.00207485 -3.68812e-06 0)
(-0.00206083 -4.19001e-06 0)
(-0.00204506 -4.68707e-06 0)
(-0.00202756 -5.17878e-06 0)
(-0.00200833 -5.66464e-06 0)
(-0.00198741 -6.14333e-06 0)
(-0.00196483 -6.61344e-06 0)
(-0.00194061 -7.0743e-06 0)
(-0.00191479 -7.52543e-06 0)
(-0.0018874 -7.96616e-06 0)
(-0.00185848 -8.39603e-06 0)
(-0.00182806 -8.81461e-06 0)
(-0.0017962 -9.22067e-06 0)
(-0.00176294 -9.61251e-06 0)
(-0.00172831 -9.98941e-06 0)
(-0.00169239 -1.03515e-05 0)
(-0.00165521 -1.06982e-05 0)
(-0.00161684 -1.10278e-05 0)
(-0.00157734 -1.13391e-05 0)
(-0.00153676 -1.16326e-05 0)
(-0.00149518 -1.19087e-05 0)
(-0.00145264 -1.21668e-05 0)
(-0.00140923 -1.24053e-05 0)
(-0.00136501 -1.26233e-05 0)
(-0.00132006 -1.28207e-05 0)
(-0.00127445 -1.29968e-05 0)
(-0.00122825 -1.31504e-05 0)
(-0.00118155 -1.32809e-05 0)
(-0.00113443 -1.3388e-05 0)
(-0.00108698 -1.34713e-05 0)
(-0.00103927 -1.35294e-05 0)
(-0.000991406 -1.35609e-05 0)
(-0.00094347 -1.35658e-05 0)
(-0.000895558 -1.35445e-05 0)
(-0.000847764 -1.34969e-05 0)
(-0.000800182 -1.34218e-05 0)
(-0.000752909 -1.3318e-05 0)
(-0.000706044 -1.31855e-05 0)
(-0.000659685 -1.30253e-05 0)
(-0.000613932 -1.28372e-05 0)
(-0.000568887 -1.26198e-05 0)
(-0.000524652 -1.23716e-05 0)
(-0.000481332 -1.20924e-05 0)
(-0.000439032 -1.17828e-05 0)
(-0.000397857 -1.14434e-05 0)
(-0.00035791 -1.10739e-05 0)
(-0.000319296 -1.06738e-05 0)
(-0.000282117 -1.02427e-05 0)
(-0.000246478 -9.78084e-06 0)
(-0.000212481 -9.28869e-06 0)
(-0.000180227 -8.76647e-06 0)
(-0.000149814 -8.21448e-06 0)
(-0.00012134 -7.63377e-06 0)
(-9.48946e-05 -7.0254e-06 0)
(-7.0568e-05 -6.39027e-06 0)
(-4.84432e-05 -5.72967e-06 0)
(-2.85972e-05 -5.04471e-06 0)
(-1.11e-05 -4.33738e-06 0)
(3.98909e-06 -3.6113e-06 0)
(1.66221e-05 -2.86941e-06 0)
(2.67643e-05 -2.11527e-06 0)
(3.44004e-05 -1.3541e-06 0)
(3.95364e-05 -5.9159e-07 0)
(4.22084e-05 1.61979e-07 0)
(4.24946e-05 8.91357e-07 0)
(4.05254e-05 1.57707e-06 0)
(3.65041e-05 2.18919e-06 0)
(3.0736e-05 2.68435e-06 0)
(2.36651e-05 2.99789e-06 0)
(1.59252e-05 3.03099e-06 0)
(8.42038e-06 2.63624e-06 0)
(2.55426e-06 1.62472e-06 0)
(1.23101e-07 1.25162e-07 0)
(1.4652e-06 -2.73788e-06 0)
(8.699e-06 -9.48732e-06 0)
(2.22636e-05 -1.40017e-05 0)
(3.86979e-05 -1.56707e-05 0)
(5.50576e-05 -1.5077e-05 0)
(6.92064e-05 -1.28616e-05 0)
(7.95541e-05 -9.49889e-06 0)
(8.49222e-05 -5.3677e-06 0)
(8.44557e-05 -7.15428e-07 0)
(7.75759e-05 4.24717e-06 0)
(6.39108e-05 9.3918e-06 0)
(4.32421e-05 1.46101e-05 0)
(1.54693e-05 1.98248e-05 0)
(-1.94178e-05 2.49853e-05 0)
(-6.13413e-05 3.00401e-05 0)
(-0.000110189 3.49576e-05 0)
(-0.000165788 3.97185e-05 0)
(-0.000227947 4.42957e-05 0)
(-0.000296429 4.86889e-05 0)
(-0.00037098 5.28753e-05 0)
(-0.000451359 5.68613e-05 0)
(-0.000537282 6.06311e-05 0)
(-0.000628458 6.42033e-05 0)
(-0.000724623 6.75524e-05 0)
(-0.000825467 7.06999e-05 0)
(-0.000930698 7.36311e-05 0)
(-0.00104004 7.63576e-05 0)
(-0.00115317 7.88681e-05 0)
(-0.00126982 8.1183e-05 0)
(-0.00138969 8.32917e-05 0)
(-0.00151248 8.51969e-05 0)
(-0.0016379 8.69053e-05 0)
(-0.00176569 8.84159e-05 0)
(-0.00189554 8.97329e-05 0)
(-0.00202718 9.08603e-05 0)
(-0.00216034 9.18032e-05 0)
(-0.00229475 9.25601e-05 0)
(-0.00243013 9.31332e-05 0)
(-0.00256623 9.35276e-05 0)
(-0.00270278 9.37477e-05 0)
(-0.00283954 9.37953e-05 0)
(-0.00297626 9.36732e-05 0)
(-0.00311268 9.33855e-05 0)
(-0.00324857 9.29338e-05 0)
(-0.0033837 9.2321e-05 0)
(-0.00351783 9.15518e-05 0)
(-0.00365075 9.06329e-05 0)
(-0.00378223 8.95678e-05 0)
(-0.00391207 8.83574e-05 0)
(-0.00404005 8.7007e-05 0)
(-0.00416598 8.55217e-05 0)
(-0.00428966 8.3907e-05 0)
(-0.00441091 8.21689e-05 0)
(-0.00452954 8.03103e-05 0)
(-0.00464538 7.83368e-05 0)
(-0.00475826 7.62527e-05 0)
(-0.00486802 7.40576e-05 0)
(-0.0049745 7.17549e-05 0)
(-0.00507753 6.93485e-05 0)
(-0.00517698 6.684e-05 0)
(-0.0052727 6.42339e-05 0)
(-0.00536455 6.15345e-05 0)
(-0.00545241 5.87453e-05 0)
(-0.00553613 5.58737e-05 0)
(-0.00561562 5.29252e-05 0)
(-0.00569076 4.99028e-05 0)
(-0.00576144 4.68117e-05 0)
(-0.00582756 4.36578e-05 0)
(-0.00588904 4.04456e-05 0)
(-0.00594579 3.71802e-05 0)
(-0.00599773 3.38666e-05 0)
(-0.00604479 3.05088e-05 0)
(-0.00608691 2.71107e-05 0)
(-0.00612403 2.36772e-05 0)
(-0.00615609 2.02118e-05 0)
(-0.00618305 1.67158e-05 0)
(-0.00620486 1.31923e-05 0)
(-0.00622149 9.64599e-06 0)
(-0.00623292 6.08085e-06 0)
(-0.0062391 2.49967e-06 0)
(-0.00624004 -1.09364e-06 0)
(-0.00623572 -4.69314e-06 0)
(-0.00622613 -8.29299e-06 0)
(-0.00621128 -1.18889e-05 0)
(-0.00619117 -1.54769e-05 0)
(-0.00616584 -1.90526e-05 0)
(-0.0061353 -2.26121e-05 0)
(-0.00609957 -2.61505e-05 0)
(-0.00605871 -2.96612e-05 0)
(-0.00601276 -3.31372e-05 0)
(-0.00596177 -3.65737e-05 0)
(-0.0059058 -3.99656e-05 0)
(-0.00584494 -4.33065e-05 0)
(-0.00577925 -4.65898e-05 0)
(-0.00570881 -4.98109e-05 0)
(-0.00563373 -5.29657e-05 0)
(-0.00555411 -5.60494e-05 0)
(-0.00547005 -5.90563e-05 0)
(-0.00538166 -6.19813e-05 0)
(-0.00528909 -6.48188e-05 0)
(-0.00519244 -6.75628e-05 0)
(-0.00509188 -7.02078e-05 0)
(-0.00498753 -7.27487e-05 0)
(-0.00487956 -7.51804e-05 0)
(-0.00476813 -7.7497e-05 0)
(-0.00465342 -7.96933e-05 0)
(-0.00453558 -8.17658e-05 0)
(-0.00441482 -8.37114e-05 0)
(-0.00429131 -8.55257e-05 0)
(-0.00416527 -8.72029e-05 0)
(-0.00403688 -8.87373e-05 0)
(-0.00390637 -9.01242e-05 0)
(-0.00377394 -9.13592e-05 0)
(-0.00363984 -9.24378e-05 0)
(-0.00350428 -9.33554e-05 0)
(-0.00336751 -9.41076e-05 0)
(-0.00322977 -9.46897e-05 0)
(-0.0030913 -9.50969e-05 0)
(-0.00295237 -9.5325e-05 0)
(-0.00281324 -9.53708e-05 0)
(-0.00267417 -9.52314e-05 0)
(-0.00253544 -9.49041e-05 0)
(-0.00239731 -9.43855e-05 0)
(-0.00226007 -9.36727e-05 0)
(-0.002124 -9.27643e-05 0)
(-0.00198939 -9.16587e-05 0)
(-0.00185651 -9.03535e-05 0)
(-0.00172568 -8.88451e-05 0)
(-0.00159717 -8.71303e-05 0)
(-0.00147129 -8.52079e-05 0)
(-0.00134832 -8.30783e-05 0)
(-0.00122857 -8.07427e-05 0)
(-0.00111234 -7.82013e-05 0)
(-0.000999916 -7.54541e-05 0)
(-0.000891591 -7.25015e-05 0)
(-0.000787654 -6.93451e-05 0)
(-0.000688392 -6.5988e-05 0)
(-0.000594085 -6.24343e-05 0)
(-0.000505004 -5.8689e-05 0)
(-0.000421412 -5.47586e-05 0)
(-0.00034356 -5.06509e-05 0)
(-0.000271686 -4.63748e-05 0)
(-0.000206009 -4.19416e-05 0)
(-0.00014673 -3.7366e-05 0)
(-9.40236e-05 -3.26656e-05 0)
(-4.80356e-05 -2.78626e-05 0)
(-8.87381e-06 -2.2984e-05 0)
(2.33994e-05 -1.80614e-05 0)
(4.87793e-05 -1.31363e-05 0)
(6.73314e-05 -8.26274e-06 0)
(7.92096e-05 -3.51073e-06 0)
(8.46815e-05 1.02479e-06 0)
(8.4158e-05 5.21962e-06 0)
(7.82356e-05 8.9087e-06 0)
(6.7751e-05 1.18657e-05 0)
(5.38429e-05 1.37861e-05 0)
(3.80021e-05 1.42657e-05 0)
(2.21208e-05 1.27892e-05 0)
(8.86717e-06 8.81169e-06 0)
(1.64617e-06 2.56458e-06 0)
(2.22752e-06 -8.29361e-06 0)
(1.18331e-05 -2.24015e-05 0)
(2.84715e-05 -3.12535e-05 0)
(4.7644e-05 -3.40173e-05 0)
(6.56506e-05 -3.17516e-05 0)
(7.98485e-05 -2.56545e-05 0)
(8.81413e-05 -1.67388e-05 0)
(8.88891e-05 -5.77874e-06 0)
(8.08759e-05 6.57573e-06 0)
(6.32081e-05 1.98869e-05 0)
(3.52842e-05 3.37685e-05 0)
(-3.28296e-06 4.79633e-05 0)
(-5.2694e-05 6.224e-05 0)
(-0.000113029 7.64537e-05 0)
(-0.000184248 9.04627e-05 0)
(-0.000266189 0.00010418 0)
(-0.000358666 0.000117511 0)
(-0.000461403 0.000130411 0)
(-0.000574089 0.000142834 0)
(-0.000696373 0.000154738 0)
(-0.000827866 0.000166099 0)
(-0.000968167 0.000176909 0)
(-0.00111687 0.000187145 0)
(-0.00127351 0.000196799 0)
(-0.00143765 0.000205877 0)
(-0.00160884 0.000214353 0)
(-0.00178662 0.000222249 0)
(-0.00197052 0.000229555 0)
(-0.00216008 0.000236269 0)
(-0.00235483 0.000242405 0)
(-0.00255432 0.000247965 0)
(-0.00275807 0.000252944 0)
(-0.00296563 0.000257356 0)
(-0.00317654 0.000261211 0)
(-0.00339036 0.000264509 0)
(-0.00360665 0.000267263 0)
(-0.00382496 0.000269484 0)
(-0.00404486 0.000271176 0)
(-0.00426592 0.000272346 0)
(-0.00448773 0.000273005 0)
(-0.00470987 0.00027316 0)
(-0.00493195 0.00027282 0)
(-0.00515357 0.000271997 0)
(-0.00537433 0.000270701 0)
(-0.00559386 0.000268942 0)
(-0.0058118 0.000266731 0)
(-0.00602776 0.000264081 0)
(-0.00624142 0.000261002 0)
(-0.00645241 0.000257503 0)
(-0.00666041 0.000253597 0)
(-0.00686508 0.0002493 0)
(-0.00706612 0.000244621 0)
(-0.00726322 0.000239574 0)
(-0.00745608 0.000234174 0)
(-0.00764441 0.00022843 0)
(-0.00782793 0.000222354 0)
(-0.00800638 0.000215956 0)
(-0.00817948 0.000209243 0)
(-0.008347 0.000202227 0)
(-0.00850869 0.00019492 0)
(-0.00866432 0.00018733 0)
(-0.00881367 0.000179471 0)
(-0.00895653 0.000171358 0)
(-0.00909269 0.000163002 0)
(-0.00922196 0.000154417 0)
(-0.00934417 0.000145619 0)
(-0.00945914 0.000136618 0)
(-0.0095667 0.000127427 0)
(-0.00966671 0.000118064 0)
(-0.00975903 0.000108539 0)
(-0.00984353 9.88648e-05 0)
(-0.00992009 8.90555e-05 0)
(-0.0099886 7.91247e-05 0)
(-0.010049 6.90829e-05 0)
(-0.0101011 5.89414e-05 0)
(-0.0101449 4.87115e-05 0)
(-0.0101803 3.84031e-05 0)
(-0.0102073 2.80283e-05 0)
(-0.0102257 1.76005e-05 0)
(-0.0102357 7.13168e-06 0)
(-0.0102371 -3.36608e-06 0)
(-0.0102299 -1.38784e-05 0)
(-0.0102142 -2.43901e-05 0)
(-0.0101899 -3.48871e-05 0)
(-0.0101571 -4.53566e-05 0)
(-0.0101157 -5.57853e-05 0)
(-0.0100659 -6.61596e-05 0)
(-0.0100077 -7.64649e-05 0)
(-0.00994113 -8.66849e-05 0)
(-0.00986629 -9.68031e-05 0)
(-0.00978328 -0.000106804 0)
(-0.00969219 -0.000116673 0)
(-0.00959314 -0.000126393 0)
(-0.00948626 -0.000135947 0)
(-0.00937169 -0.000145321 0)
(-0.00924957 -0.000154502 0)
(-0.00912008 -0.000163474 0)
(-0.0089834 -0.000172221 0)
(-0.0088397 -0.00018073 0)
(-0.0086892 -0.000188982 0)
(-0.0085321 -0.000196964 0)
(-0.00836863 -0.000204658 0)
(-0.00819904 -0.000212051 0)
(-0.00802357 -0.000219128 0)
(-0.00784248 -0.000225871 0)
(-0.00765606 -0.000232268 0)
(-0.00746457 -0.000238304 0)
(-0.00726833 -0.000243968 0)
(-0.00706765 -0.000249246 0)
(-0.00686284 -0.000254124 0)
(-0.00665424 -0.000258585 0)
(-0.00644219 -0.000262617 0)
(-0.00622704 -0.000266206 0)
(-0.00600917 -0.000269339 0)
(-0.00578894 -0.000272004 0)
(-0.00556674 -0.000274188 0)
(-0.00534296 -0.000275878 0)
(-0.00511801 -0.000277062 0)
(-0.00489231 -0.000277729 0)
(-0.00466627 -0.00027787 0)
(-0.00444032 -0.000277473 0)
(-0.0042149 -0.000276532 0)
(-0.00399046 -0.000275037 0)
(-0.00376743 -0.000272982 0)
(-0.00354628 -0.000270359 0)
(-0.00332747 -0.000267164 0)
(-0.00311146 -0.000263389 0)
(-0.00289872 -0.00025903 0)
(-0.00268972 -0.00025408 0)
(-0.00248494 -0.000248537 0)
(-0.00228483 -0.000242401 0)
(-0.00208989 -0.000235673 0)
(-0.00190057 -0.000228355 0)
(-0.00171736 -0.00022045 0)
(-0.0015407 -0.000211963 0)
(-0.00137106 -0.0002029 0)
(-0.00120889 -0.000193271 0)
(-0.00105462 -0.000183089 0)
(-0.000908671 -0.000172372 0)
(-0.00077146 -0.00016114 0)
(-0.000643371 -0.000149417 0)
(-0.000524764 -0.000137234 0)
(-0.000415974 -0.000124628 0)
(-0.000317297 -0.000111642 0)
(-0.00022899 -9.83341e-05 0)
(-0.000151255 -8.47704e-05 0)
(-8.42343e-05 -7.10329e-05 0)
(-2.79924e-05 -5.72218e-05 0)
(1.74995e-05 -4.34627e-05 0)
(5.23823e-05 -2.99137e-05 0)
(7.69352e-05 -1.67761e-05 0)
(9.1609e-05 -4.30822e-06 0)
(9.70624e-05 7.16102e-06 0)
(9.42135e-05 1.7209e-05 0)
(8.42988e-05 2.52926e-05 0)
(6.89332e-05 3.07225e-05 0)
(5.01372e-05 3.26503e-05 0)
(3.03492e-05 3.00966e-05 0)
(1.29676e-05 2.21122e-05 0)
(2.70032e-06 8.49522e-06 0)
(2.43236e-06 -1.50135e-05 0)
(1.26418e-05 -3.71474e-05 0)
(2.95675e-05 -4.99176e-05 0)
(4.79733e-05 -5.27627e-05 0)
(6.37317e-05 -4.73044e-05 0)
(7.38349e-05 -3.53841e-05 0)
(7.59133e-05 -1.85593e-05 0)
(6.80338e-05 1.89237e-06 0)
(4.87199e-05 2.49648e-05 0)
(1.68774e-05 4.983e-05 0)
(-2.8294e-05 7.58716e-05 0)
(-8.73109e-05 0.000102579 0)
(-0.000160485 0.000129566 0)
(-0.000247946 0.000156505 0)
(-0.000349672 0.000183174 0)
(-0.000465539 0.000209349 0)
(-0.000595311 0.000234894 0)
(-0.000738664 0.000259681 0)
(-0.000895228 0.000283599 0)
(-0.00106456 0.0003066 0)
(-0.00124619 0.0003286 0)
(-0.00143959 0.000349566 0)
(-0.00164422 0.000369458 0)
(-0.00185952 0.000388265 0)
(-0.00208491 0.000405944 0)
(-0.00231977 0.000422512 0)
(-0.00256351 0.000437937 0)
(-0.00281552 0.000452233 0)
(-0.00307516 0.000465391 0)
(-0.00334182 0.000477417 0)
(-0.00361489 0.000488318 0)
(-0.00389373 0.000498101 0)
(-0.00417773 0.000506776 0)
(-0.00446628 0.00051435 0)
(-0.00475876 0.00052084 0)
(-0.00505459 0.000526262 0)
(-0.00535316 0.00053063 0)
(-0.00565389 0.000533959 0)
(-0.0059562 0.000536269 0)
(-0.00625952 0.000537574 0)
(-0.0065633 0.000537889 0)
(-0.00686697 0.000537234 0)
(-0.00717001 0.000535629 0)
(-0.00747189 0.000533094 0)
(-0.00777208 0.00052965 0)
(-0.0080701 0.00052532 0)
(-0.00836543 0.000520124 0)
(-0.0086576 0.000514083 0)
(-0.00894614 0.000507218 0)
(-0.00923059 0.000499554 0)
(-0.0095105 0.000491115 0)
(-0.00978546 0.000481923 0)
(-0.010055 0.000472002 0)
(-0.0103188 0.000461377 0)
(-0.0105764 0.000450071 0)
(-0.0108274 0.000438104 0)
(-0.0110714 0.000425498 0)
(-0.0113082 0.000412276 0)
(-0.0115373 0.000398456 0)
(-0.0117585 0.000384063 0)
(-0.0119714 0.000369119 0)
(-0.0121756 0.000353647 0)
(-0.012371 0.000337673 0)
(-0.0125573 0.000321224 0)
(-0.0127341 0.000304323 0)
(-0.0129012 0.000286995 0)
(-0.0130585 0.000269268 0)
(-0.0132056 0.000251167 0)
(-0.0133424 0.000232716 0)
(-0.0134687 0.000213942 0)
(-0.0135843 0.00019487 0)
(-0.013689 0.000175524 0)
(-0.0137826 0.00015593 0)
(-0.0138651 0.000136114 0)
(-0.0139364 0.000116098 0)
(-0.0139962 9.59046e-05 0)
(-0.0140446 7.5559e-05 0)
(-0.0140814 5.50861e-05 0)
(-0.0141066 3.45101e-05 0)
(-0.0141201 1.38564e-05 0)
(-0.0141219 -6.84813e-06 0)
(-0.014112 -2.75764e-05 0)
(-0.0140903 -4.83009e-05 0)
(-0.014057 -6.89938e-05 0)
(-0.0140119 -8.96283e-05 0)
(-0.0139552 -0.000110177 0)
(-0.013887 -0.000130613 0)
(-0.0138072 -0.000150904 0)
(-0.013716 -0.000171023 0)
(-0.0136136 -0.00019094 0)
(-0.0134999 -0.000210624 0)
(-0.0133752 -0.000230044 0)
(-0.0132397 -0.00024917 0)
(-0.0130934 -0.000267973 0)
(-0.0129367 -0.000286421 0)
(-0.0127696 -0.000304486 0)
(-0.0125924 -0.000322139 0)
(-0.0124055 -0.000339349 0)
(-0.0122089 -0.000356087 0)
(-0.0120031 -0.000372321 0)
(-0.0117883 -0.000388021 0)
(-0.0115647 -0.000403158 0)
(-0.0113328 -0.000417703 0)
(-0.0110929 -0.000431624 0)
(-0.0108453 -0.000444892 0)
(-0.0105904 -0.00045748 0)
(-0.0103286 -0.00046936 0)
(-0.0100603 -0.000480504 0)
(-0.00978598 -0.000490886 0)
(-0.00950599 -0.000500477 0)
(-0.00922083 -0.000509251 0)
(-0.00893097 -0.000517179 0)
(-0.00863687 -0.000524236 0)
(-0.00833905 -0.000530398 0)
(-0.00803801 -0.000535638 0)
(-0.00773428 -0.000539934 0)
(-0.0074284 -0.00054326 0)
(-0.00712091 -0.000545594 0)
(-0.00681237 -0.000546917 0)
(-0.00650336 -0.000547207 0)
(-0.00619446 -0.000546447 0)
(-0.00588626 -0.000544619 0)
(-0.00557937 -0.000541707 0)
(-0.00527438 -0.000537697 0)
(-0.00497192 -0.000532576 0)
(-0.00467262 -0.000526334 0)
(-0.00437709 -0.00051896 0)
(-0.00408598 -0.000510444 0)
(-0.00379991 -0.00050078 0)
(-0.00351952 -0.000489963 0)
(-0.00324545 -0.000477994 0)
(-0.00297833 -0.000464874 0)
(-0.00271879 -0.000450611 0)
(-0.00246746 -0.000435211 0)
(-0.00222495 -0.000418687 0)
(-0.00199187 -0.000401055 0)
(-0.00176882 -0.000382336 0)
(-0.00155637 -0.00036256 0)
(-0.00135508 -0.000341762 0)
(-0.00116548 -0.000319985 0)
(-0.000988072 -0.000297281 0)
(-0.000823327 -0.000273714 0)
(-0.000671669 -0.000249359 0)
(-0.000533472 -0.00022431 0)
(-0.000409052 -0.000198679 0)
(-0.00029865 -0.000172601 0)
(-0.000202424 -0.000146242 0)
(-0.00012043 -0.000119802 0)
(-5.2597e-05 -9.35267e-05 0)
(1.29064e-06 -6.77228e-05 0)
(4.16242e-05 -4.27697e-05 0)
(6.9008e-05 -1.91422e-05 0)
(8.42976e-05 2.56868e-06 0)
(8.86484e-05 2.16262e-05 0)
(8.35716e-05 3.71152e-05 0)
(7.09887e-05 4.79153e-05 0)
(5.32462e-05 5.26925e-05 0)
(3.31321e-05 4.99454e-05 0)
(1.4552e-05 3.81553e-05 0)
(3.12755e-06 1.61386e-05 0)
(2.3013e-06 -2.16914e-05 0)
(1.17571e-05 -5.12413e-05 0)
(2.66511e-05 -6.68193e-05 0)
(4.14706e-05 -6.82011e-05 0)
(5.18433e-05 -5.77597e-05 0)
(5.45672e-05 -3.79975e-05 0)
(4.70794e-05 -1.10412e-05 0)
(2.73024e-05 2.13521e-05 0)
(-6.41292e-06 5.7734e-05 0)
(-5.53208e-05 9.69507e-05 0)
(-0.000120319 0.00013806 0)
(-0.00020205 0.000180304 0)
(-0.000300896 0.000223086 0)
(-0.000417036 0.000265904 0)
(-0.000550499 0.000308375 0)
(-0.000701134 0.000350173 0)
(-0.00086869 0.000391048 0)
(-0.00105284 0.000430786 0)
(-0.00125313 0.000469232 0)
(-0.00146905 0.000506242 0)
(-0.00170006 0.000541715 0)
(-0.00194553 0.000575575 0)
(-0.00220483 0.000607746 0)
(-0.00247727 0.000638189 0)
(-0.00276213 0.000666852 0)
(-0.00305871 0.000693733 0)
(-0.00336627 0.000718786 0)
(-0.00368404 0.00074202 0)
(-0.00401128 0.000763425 0)
(-0.00434721 0.000783 0)
(-0.00469108 0.000800752 0)
(-0.00504211 0.000816692 0)
(-0.00539955 0.000830833 0)
(-0.00576264 0.000843189 0)
(-0.00613062 0.000853783 0)
(-0.00650274 0.000862631 0)
(-0.00687827 0.000869758 0)
(-0.00725647 0.00087519 0)
(-0.00763663 0.000878956 0)
(-0.00801803 0.00088108 0)
(-0.00839998 0.000881591 0)
(-0.00878179 0.00088052 0)
(-0.00916278 0.000877895 0)
(-0.0095423 0.00087375 0)
(-0.00991971 0.000868118 0)
(-0.0102944 0.000861035 0)
(-0.0106656 0.000852535 0)
(-0.0110329 0.000842651 0)
(-0.0113957 0.000831421 0)
(-0.0117533 0.000818882 0)
(-0.0121052 0.000805068 0)
(-0.0124508 0.000790019 0)
(-0.0127897 0.000773774 0)
(-0.0131213 0.000756368 0)
(-0.0134451 0.000737841 0)
(-0.0137606 0.000718227 0)
(-0.0140675 0.000697563 0)
(-0.0143651 0.000675887 0)
(-0.0146531 0.000653234 0)
(-0.0149312 0.000629641 0)
(-0.0151988 0.000605146 0)
(-0.0154555 0.00057979 0)
(-0.0157012 0.000553612 0)
(-0.0159353 0.000526651 0)
(-0.0161576 0.000498951 0)
(-0.0163677 0.000470549 0)
(-0.0165653 0.000441488 0)
(-0.0167503 0.00041181 0)
(-0.0169222 0.000381557 0)
(-0.0170809 0.000350767 0)
(-0.0172261 0.000319484 0)
(-0.0173577 0.000287748 0)
(-0.0174754 0.000255602 0)
(-0.0175791 0.000223084 0)
(-0.0176685 0.000190235 0)
(-0.0177437 0.000157096 0)
(-0.0178044 0.000123709 0)
(-0.0178505 9.01138e-05 0)
(-0.0178821 5.63534e-05 0)
(-0.017899 2.24693e-05 0)
(-0.0179011 -1.14944e-05 0)
(-0.0178885 -4.54921e-05 0)
(-0.0178612 -7.94792e-05 0)
(-0.0178191 -0.000113412 0)
(-0.0177624 -0.000147244 0)
(-0.017691 -0.000180931 0)
(-0.017605 -0.000214424 0)
(-0.0175046 -0.000247678 0)
(-0.0173899 -0.000280644 0)
(-0.017261 -0.000313274 0)
(-0.017118 -0.00034552 0)
(-0.0169612 -0.000377332 0)
(-0.0167907 -0.000408661 0)
(-0.0166068 -0.000439458 0)
(-0.0164096 -0.000469674 0)
(-0.0161996 -0.000499261 0)
(-0.0159769 -0.000528171 0)
(-0.0157418 -0.000556354 0)
(-0.0154947 -0.00058376 0)
(-0.015236 -0.000610342 0)
(-0.014966 -0.00063605 0)
(-0.014685 -0.000660835 0)
(-0.0143935 -0.000684648 0)
(-0.014092 -0.000707442 0)
(-0.0137808 -0.000729168 0)
(-0.0134605 -0.00074978 0)
(-0.0131315 -0.000769232 0)
(-0.0127944 -0.000787479 0)
(-0.0124496 -0.000804477 0)
(-0.0120978 -0.000820179 0)
(-0.0117395 -0.000834541 0)
(-0.0113753 -0.000847521 0)
(-0.0110058 -0.000859077 0)
(-0.0106315 -0.000869167 0)
(-0.0102533 -0.000877751 0)
(-0.00987161 -0.00088479 0)
(-0.00948724 -0.000890247 0)
(-0.00910083 -0.000894086 0)
(-0.0087131 -0.000896274 0)
(-0.00832475 -0.000896779 0)
(-0.0079365 -0.000895571 0)
(-0.00754911 -0.000892622 0)
(-0.00716331 -0.000887908 0)
(-0.00677987 -0.000881405 0)
(-0.00639954 -0.000873094 0)
(-0.00602312 -0.000862956 0)
(-0.00565137 -0.000850977 0)
(-0.00528508 -0.000837145 0)
(-0.00492503 -0.000821451 0)
(-0.00457202 -0.000803891 0)
(-0.00422682 -0.000784466 0)
(-0.00389022 -0.000763181 0)
(-0.00356299 -0.000740048 0)
(-0.00324591 -0.000715084 0)
(-0.00293973 -0.00068831 0)
(-0.00264519 -0.000659758 0)
(-0.00236302 -0.000629467 0)
(-0.00209391 -0.000597487 0)
(-0.00183855 -0.000563881 0)
(-0.00159756 -0.000528723 0)
(-0.00137156 -0.000492101 0)
(-0.0011611 -0.000454125 0)
(-0.000966674 -0.000414923 0)
(-0.000788728 -0.000374653 0)
(-0.000627621 -0.000333501 0)
(-0.000483622 -0.000291691 0)
(-0.000356896 -0.000249495 0)
(-0.000247484 -0.000207239 0)
(-0.000155277 -0.000165317 0)
(-7.99956e-05 -0.000124215 0)
(-2.1158e-05 -8.45219e-05 0)
(2.19573e-05 -4.69598e-05 0)
(5.03488e-05 -1.24122e-05 0)
(6.53354e-05 1.80443e-05 0)
(6.86071e-05 4.31043e-05 0)
(6.22732e-05 6.12046e-05 0)
(4.88787e-05 7.05107e-05 0)
(3.1441e-05 6.89482e-05 0)
(1.41688e-05 5.42795e-05 0)
(3.11587e-06 2.40693e-05 0)
(1.95826e-06 -2.75502e-05 0)
(9.64273e-06 -6.30284e-05 0)
(2.0635e-05 -7.97274e-05 0)
(2.95232e-05 -7.78007e-05 0)
(3.19177e-05 -6.03654e-05 0)
(2.45173e-05 -3.06351e-05 0)
(4.69693e-06 8.70815e-06 0)
(-2.97373e-05 5.54013e-05 0)
(-8.05031e-05 0.000107596 0)
(-0.000148921 0.000163753 0)
(-0.000236013 0.00022262 0)
(-0.000342452 0.000283175 0)
(-0.000468692 0.000344573 0)
(-0.000614953 0.000406128 0)
(-0.000781256 0.000467279 0)
(-0.000967486 0.000527571 0)
(-0.00117337 0.000586617 0)
(-0.00139853 0.000644119 0)
(-0.00164248 0.00069983 0)
(-0.00190468 0.000753536 0)
(-0.00218446 0.000805088 0)
(-0.00248116 0.000854337 0)
(-0.00279402 0.000901197 0)
(-0.00312228 0.000945571 0)
(-0.00346512 0.00098741 0)
(-0.00382169 0.00102665 0)
(-0.00419116 0.00106327 0)
(-0.00457264 0.00109725 0)
(-0.00496524 0.00112856 0)
(-0.00536808 0.00115722 0)
(-0.00578026 0.00118323 0)
(-0.00620088 0.00120658 0)
(-0.00662905 0.0012273 0)
(-0.00706386 0.00124542 0)
(-0.00750444 0.00126095 0)
(-0.00794989 0.00127392 0)
(-0.00839935 0.00128437 0)
(-0.00885195 0.00129233 0)
(-0.00930683 0.00129784 0)
(-0.00976316 0.00130093 0)
(-0.0102201 0.00130165 0)
(-0.0106768 0.00130005 0)
(-0.0111326 0.00129616 0)
(-0.0115866 0.00129003 0)
(-0.012038 0.00128171 0)
(-0.0124861 0.00127126 0)
(-0.0129301 0.00125871 0)
(-0.0133694 0.00124413 0)
(-0.0138032 0.00122756 0)
(-0.0142309 0.00120905 0)
(-0.0146517 0.00118867 0)
(-0.0150651 0.00116646 0)
(-0.0154703 0.00114249 0)
(-0.0158669 0.0011168 0)
(-0.0162541 0.00108944 0)
(-0.0166314 0.00106048 0)
(-0.0169983 0.00102997 0)
(-0.0173543 0.000997963 0)
(-0.0176987 0.000964513 0)
(-0.0180311 0.000929678 0)
(-0.0183511 0.000893511 0)
(-0.0186582 0.000856073 0)
(-0.0189518 0.000817423 0)
(-0.0192318 0.000777617 0)
(-0.0194975 0.000736714 0)
(-0.0197487 0.000694777 0)
(-0.0199851 0.000651865 0)
(-0.0202061 0.000608037 0)
(-0.0204117 0.000563355 0)
(-0.0206014 0.000517879 0)
(-0.020775 0.000471669 0)
(-0.0209322 0.000424788 0)
(-0.0210729 0.000377296 0)
(-0.0211967 0.000329252 0)
(-0.0213036 0.000280719 0)
(-0.0213934 0.000231757 0)
(-0.0214659 0.000182429 0)
(-0.0215209 0.000132796 0)
(-0.0215585 8.29217e-05 0)
(-0.0215786 3.28691e-05 0)
(-0.021581 -1.72963e-05 0)
(-0.0215658 -6.75089e-05 0)
(-0.021533 -0.000117702 0)
(-0.0214826 -0.00016781 0)
(-0.0214146 -0.000217764 0)
(-0.0213291 -0.000267499 0)
(-0.0212263 -0.000316943 0)
(-0.0211061 -0.000366028 0)
(-0.0209688 -0.000414683 0)
(-0.0208145 -0.000462839 0)
(-0.0206435 -0.000510424 0)
(-0.0204559 -0.000557366 0)
(-0.0202519 -0.000603592 0)
(-0.020032 -0.000649031 0)
(-0.0197962 -0.000693612 0)
(-0.019545 -0.000737263 0)
(-0.0192786 -0.000779911 0)
(-0.0189976 -0.000821485 0)
(-0.0187021 -0.000861912 0)
(-0.0183928 -0.000901121 0)
(-0.0180699 -0.000939039 0)
(-0.017734 -0.000975596 0)
(-0.0173855 -0.00101072 0)
(-0.017025 -0.00104434 0)
(-0.016653 -0.00107638 0)
(-0.0162701 -0.00110679 0)
(-0.0158769 -0.00113548 0)
(-0.0154739 -0.00116239 0)
(-0.0150618 -0.00118746 0)
(-0.0146412 -0.00121062 0)
(-0.0142129 -0.00123181 0)
(-0.0137775 -0.00125096 0)
(-0.0133358 -0.00126801 0)
(-0.0128885 -0.0012829 0)
(-0.0124363 -0.00129557 0)
(-0.01198 -0.00130598 0)
(-0.0115205 -0.00131405 0)
(-0.0110585 -0.00131975 0)
(-0.0105949 -0.00132302 0)
(-0.0101306 -0.00132382 0)
(-0.0096663 -0.0013221 0)
(-0.00920299 -0.00131783 0)
(-0.00874153 -0.00131096 0)
(-0.00828282 -0.00130148 0)
(-0.00782777 -0.00128934 0)
(-0.00737728 -0.00127453 0)
(-0.00693229 -0.00125702 0)
(-0.00649371 -0.0012368 0)
(-0.00606248 -0.00121386 0)
(-0.00563951 -0.00118819 0)
(-0.00522573 -0.00115981 0)
(-0.00482205 -0.00112871 0)
(-0.0044294 -0.00109493 0)
(-0.00404866 -0.00105849 0)
(-0.00368072 -0.00101942 0)
(-0.00332643 -0.000977781 0)
(-0.00298665 -0.00093363 0)
(-0.00266218 -0.000887047 0)
(-0.0023538 -0.000838127 0)
(-0.00206224 -0.000786985 0)
(-0.0017882 -0.000733758 0)
(-0.0015323 -0.00067861 0)
(-0.00129511 -0.000621737 0)
(-0.00107712 -0.000563372 0)
(-0.000878732 -0.000503795 0)
(-0.000700231 -0.000443335 0)
(-0.000541789 -0.000382388 0)
(-0.000403435 -0.000321426 0)
(-0.000285032 -0.000261016 0)
(-0.000186252 -0.000201841 0)
(-0.000106547 -0.000144721 0)
(-4.51157e-05 -9.06451e-05 0)
(-8.66339e-07 -4.08028e-05 0)
(2.76213e-05 3.37888e-06 0)
(4.21422e-05 4.01974e-05 0)
(4.491e-05 6.76411e-05 0)
(3.85768e-05 8.33639e-05 0)
(2.62881e-05 8.46878e-05 0)
(1.23531e-05 6.8594e-05 0)
(2.8205e-06 3.13788e-05 0)
(1.49175e-06 -3.20638e-05 0)
(6.66906e-06 -7.11822e-05 0)
(1.22852e-05 -8.67872e-05 0)
(1.3366e-05 -7.93498e-05 0)
(5.6637e-06 -5.2729e-05 0)
(-1.41069e-05 -1.07841e-05 0)
(-4.85933e-05 4.32071e-05 0)
(-9.99747e-05 0.000106534 0)
(-0.000170009 0.000176919 0)
(-0.000260081 0.000252454 0)
(-0.00037119 0.000331579 0)
(-0.000504092 0.000412979 0)
(-0.000659255 0.000495566 0)
(-0.000836909 0.000578461 0)
(-0.00103711 0.000660897 0)
(-0.00125971 0.00074227 0)
(-0.00150443 0.000822073 0)
(-0.00177087 0.00089988 0)
(-0.0020585 0.000975343 0)
(-0.00236671 0.00104818 0)
(-0.00269481 0.00111817 0)
(-0.00304202 0.00118509 0)
(-0.00340754 0.00124883 0)
(-0.0037905 0.00130923 0)
(-0.00418998 0.00136623 0)
(-0.00460506 0.00141972 0)
(-0.00503476 0.00146968 0)
(-0.00547812 0.00151605 0)
(-0.00593411 0.00155881 0)
(-0.00640175 0.00159796 0)
(-0.00688 0.00163349 0)
(-0.00736786 0.00166541 0)
(-0.00786429 0.00169375 0)
(-0.00836829 0.00171851 0)
(-0.00887884 0.00173974 0)
(-0.00939492 0.00175747 0)
(-0.00991555 0.00177174 0)
(-0.0104397 0.00178261 0)
(-0.0109665 0.0017901 0)
(-0.0114948 0.00179429 0)
(-0.0120239 0.00179521 0)
(-0.0125526 0.00179294 0)
(-0.0130802 0.00178753 0)
(-0.0136056 0.00177905 0)
(-0.014128 0.00176755 0)
(-0.0146466 0.00175312 0)
(-0.0151605 0.0017358 0)
(-0.0156689 0.00171568 0)
(-0.0161709 0.00169283 0)
(-0.0166657 0.00166731 0)
(-0.0171527 0.0016392 0)
(-0.017631 0.00160858 0)
(-0.0180999 0.00157551 0)
(-0.0185587 0.00154008 0)
(-0.0190067 0.00150235 0)
(-0.0194433 0.00146241 0)
(-0.0198678 0.00142033 0)
(-0.0202795 0.00137619 0)
(-0.020678 0.00133005 0)
(-0.0210626 0.001282 0)
(-0.0214328 0.00123213 0)
(-0.021788 0.00118049 0)
(-0.0221277 0.00112719 0)
(-0.0224515 0.00107229 0)
(-0.0227589 0.00101588 0)
(-0.0230495 0.000958039 0)
(-0.0233228 0.000898853 0)
(-0.0235785 0.000838402 0)
(-0.0238162 0.000776769 0)
(-0.0240356 0.000714038 0)
(-0.0242364 0.000650295 0)
(-0.0244182 0.000585621 0)
(-0.0245808 0.000520102 0)
(-0.024724 0.000453821 0)
(-0.0248475 0.000386864 0)
(-0.0249513 0.000319317 0)
(-0.025035 0.000251265 0)
(-0.0250986 0.000182796 0)
(-0.025142 0.000113996 0)
(-0.025165 4.49543e-05 0)
(-0.0251677 -2.42387e-05 0)
(-0.02515 -9.34919e-05 0)
(-0.0251119 -0.000162714 0)
(-0.0250535 -0.000231815 0)
(-0.0249747 -0.000300699 0)