/*--------------------------------*- C++ -*----------------------------------*\
  =========                 |
  \\      /  F ield         | OpenFOAM: The Open Source CFD Toolbox
   \\    /   O peration     | Website:  https://openfoam.org
    \\  /    A nd           | Version:  7
     \\/     M anipulation  |
\*---------------------------------------------------------------------------*/
FoamFile
{
    version     2.0;
    format      ascii;
    class       volScalarField;
    location    "0.3875";
    object      p;
}
// * * * * * * * * * * * * * * * * * * * * * * * * * * * * * * * * * * * * * //

dimensions      [0 2 -2 0 0 0 0];

internalField   nonuniform List<scalar> 
25600
(
3.158e-06
0.000117318
0.000146452
3.82058e-05
-0.000215102
-0.000609393
-0.00113369
-0.00177367
-0.00251373
-0.00333858
-0.00423376
-0.00518571
-0.00618189
-0.00721065
-0.0082612
-0.00932369
-0.0103891
-0.0114492
-0.0124964
-0.0135238
-0.0145251
-0.0154944
-0.0164265
-0.0173165
-0.0181602
-0.0189535
-0.0196929
-0.0203752
-0.0209975
-0.0215571
-0.0220518
-0.0224795
-0.0228386
-0.0231276
-0.0233451
-0.0234902
-0.0235619
-0.0235598
-0.0234831
-0.0233318
-0.0231055
-0.0228045
-0.0224287
-0.0219787
-0.0214548
-0.0208576
-0.0201879
-0.0194464
-0.0186342
-0.0177523
-0.0168017
-0.0157839
-0.0147001
-0.0135517
-0.0123403
-0.0110675
-0.00973492
-0.00834433
-0.00689754
-0.00539647
-0.00384308
-0.0022394
-0.000587521
0.00111042
0.00285223
0.00463565
0.00645838
0.00831804
0.0102122
0.0121385
0.0140943
0.0160772
0.0180847
0.020114
0.0221626
0.0242279
0.0263072
0.0283976
0.0304966
0.0326014
0.0347091
0.036817
0.0389223
0.0410222
0.0431139
0.0451945
0.0472614
0.0493115
0.0513423
0.0533508
0.0553344
0.0572902
0.0592156
0.0611079
0.0629643
0.0647822
0.0665591
0.0682924
0.0699795
0.0716181
0.0732057
0.07474
0.0762188
0.0776398
0.0790009
0.0803
0.0815354
0.082705
0.0838071
0.0848402
0.0858026
0.086693
0.0875101
0.0882526
0.0889196
0.0895102
0.0900236
0.0904593
0.0908167
0.0910957
0.0912961
0.0914181
0.091462
0.0914283
0.0913175
0.0911308
0.0908691
0.090534
0.0901269
0.0896498
0.0891047
0.0884942
0.0878209
0.0870878
0.0862983
0.0854561
0.084565
0.0836297
0.0826548
0.0816456
0.0806079
0.0795477
0.0784717
0.0773873
0.0763022
0.0752248
0.0741644
0.0731308
0.0721348
0.0711878
0.0703023
0.0694913
0.0687688
0.0681493
0.0676472
0.0672756
0.0670437
0.0669533
0.0669935
0.0671088
-0.000106017
6.04214e-06
1.04713e-05
-0.000110534
-0.000352743
-0.000714202
-0.00118838
-0.00176506
-0.00243224
-0.00317749
-0.00398857
-0.00485372
-0.00576177
-0.00670219
-0.00766508
-0.00864122
-0.00962218
-0.0106001
-0.0115679
-0.0125188
-0.0134468
-0.0143461
-0.0152117
-0.0160388
-0.0168232
-0.0175609
-0.0182486
-0.0188828
-0.0194608
-0.01998
-0.0204379
-0.0208327
-0.0211625
-0.0214258
-0.0216214
-0.021748
-0.021805
-0.0217914
-0.0217068
-0.0215508
-0.0213232
-0.0210241
-0.0206534
-0.0202115
-0.0196988
-0.0191158
-0.0184631
-0.0177415
-0.0169519
-0.0160952
-0.0151726
-0.0141851
-0.0131341
-0.0120209
-0.010847
-0.00961391
-0.00832316
-0.00697646
-0.00557555
-0.00412226
-0.00261847
-0.00106615
0.000532705
0.00217604
0.00386174
0.00558762
0.00735146
0.00915096
0.0109838
0.0128476
0.01474
0.0166585
0.0186007
0.020564
0.022546
0.024544
0.0265554
0.0285777
0.0306082
0.0326441
0.0346829
0.0367218
0.0387582
0.0407893
0.0428124
0.0448247
0.0468237
0.0488065
0.0507705
0.0527129
0.0546312
0.0565226
0.0583846
0.0602145
0.0620098
0.0637678
0.0654863
0.0671625
0.0687943
0.0703792
0.0719149
0.0733991
0.0748298
0.0762048
0.077522
0.0787797
0.0799758
0.0811087
0.0821767
0.0831782
0.0841119
0.0849763
0.0857703
0.0864928
0.0871428
0.0877195
0.0882223
0.0886506
0.0890041
0.0892825
0.0894859
0.0896145
0.0896685
0.0896485
0.0895553
0.0893897
0.0891531
0.0888467
0.0884722
0.0880315
0.0875268
0.0869603
0.0863349
0.0856535
0.0849193
0.0841361
0.0833077
0.0824385
0.0815332
0.0805968
0.0796349
0.0786534
0.0776588
0.0766579
0.0756582
0.0746677
0.0736949
0.0727491
0.0718401
0.0709782
0.0701744
0.0694401
0.0687869
0.0682266
0.0677701
0.0674267
0.0672017
0.0670951
0.067109
0.0672243
-0.000134393
2.04741e-06
6.47555e-06
-0.000115596
-0.000347785
-0.000686837
-0.00112722
-0.00166026
-0.00227594
-0.00296375
-0.00371309
-0.00451354
-0.00535499
-0.00622783
-0.00712295
-0.00803181
-0.00894647
-0.00985955
-0.0107642
-0.011654
-0.0125231
-0.013366
-0.0141778
-0.0149538
-0.01569
-0.0163824
-0.0170276
-0.0176225
-0.0181641
-0.0186499
-0.0190775
-0.019445
-0.0197506
-0.0199926
-0.0201699
-0.0202813
-0.0203258
-0.0203027
-0.0202114
-0.0200516
-0.0198229
-0.0195252
-0.0191588
-0.0187237
-0.0182204
-0.0176492
-0.0170108
-0.0163059
-0.0155352
-0.0146997
-0.0138004
-0.0128385
-0.0118151
-0.0107315
-0.00958917
-0.00838945
-0.00713392
-0.00582418
-0.00446192
-0.00304889
-0.00158691
-7.78819e-05
0.00147627
0.00307356
0.00471194
0.00638929
0.00810346
0.00985221
0.0116333
0.0134444
0.0152833
0.0171475
0.0190346
0.0209423
0.022868
0.0248092
0.0267635
0.0287283
0.0307009
0.0326789
0.0346596
0.0366404
0.0386186
0.0405917
0.042557
0.0445118
0.0464536
0.0483797
0.0502875
0.0521743
0.0540376
0.0558749
0.0576835
0.059461
0.0612049
0.0629127
0.064582
0.0662105
0.0677957
0.0693355
0.0708277
0.0722699
0.0736603
0.0749968
0.0762773
0.0775002
0.0786635
0.0797657
0.0808051
0.0817803
0.0826899
0.0835326
0.0843074
0.0850131
0.0856489
0.0862141
0.0867081
0.0871303
0.0874804
0.0877585
0.0879643
0.0880983
0.0881607
0.0881521
0.0880733
0.0879253
0.0877093
0.0874266
0.087079
0.0866682
0.0861965
0.0856661
0.0850799
0.0844406
0.0837516
0.0830164
0.0822388
0.0814231
0.0805738
0.0796959
0.0787948
0.077876
0.0769458
0.0760109
0.0750782
0.0741553
0.0732502
0.0723716
0.0715284
0.07073
0.0699862
0.0693072
0.0687032
0.0681839
0.0677586
0.0674352
0.0672179
0.0671088
0.0671228
0.0672649
-2.64106e-05
0.000123127
0.00012893
7.01117e-06
-0.000219107
-0.000544362
-0.000962941
-0.00146658
-0.00204628
-0.0026927
-0.00339641
-0.00414802
-0.00493832
-0.00575848
-0.00660008
-0.00745522
-0.00831645
-0.00917679
-0.0100297
-0.0108692
-0.0116894
-0.0124854
-0.0132521
-0.0139852
-0.0146807
-0.0153347
-0.0159439
-0.0165052
-0.0170157
-0.0174729
-0.0178745
-0.0182186
-0.0185032
-0.0187269
-0.0188884
-0.0189865
-0.0190203
-0.018989
-0.0188919
-0.0187286
-0.018499
-0.0182027
-0.01784
-0.0174109
-0.0169158
-0.016355
-0.0157291
-0.0150388
-0.0142848
-0.013468
-0.0125893
-0.0116499
-0.0106508
-0.00959334
-0.00847879
-0.00730855
-0.0060841
-0.00480699
-0.00347886
-0.00210139
-0.000676355
0.000794423
0.00230907
0.00386566
0.0054622
0.00709665
0.00876688
0.0104708
0.0122061
0.0139706
0.0157621
0.0175783
0.0194167
0.0212752
0.0231511
0.0250422
0.0269459
0.0288599
0.0307815
0.0327082
0.0346375
0.0365669
0.0384939
0.0404158
0.04233
0.0442341
0.0461254
0.0480015
0.0498596
0.0516974
0.0535124
0.0553019
0.0570635
0.0587949
0.0604936
0.0621571
0.0637832
0.0653696
0.0669139
0.0684141
0.069868
0.0712734
0.0726284
0.0739311
0.0751794
0.0763718
0.0775064
0.0785817
0.0795961
0.0805482
0.0814367
0.0822605
0.0830184
0.0837095
0.084333
0.0848881
0.0853742
0.0857911
0.0861384
0.0864159
0.0866239
0.0867624
0.086832
0.0868332
0.0867669
0.0866339
0.0864355
0.0861732
0.0858485
0.0854633
0.0850197
0.0845201
0.0839671
0.0833635
0.0827127
0.0820179
0.081283
0.0805121
0.0797096
0.0788803
0.0780293
0.0771621
0.0762847
0.0754032
0.0745244
0.0736555
0.0728039
0.0719776
0.071185
0.0704346
0.0697354
0.0690964
0.0685269
0.0680355
0.0676307
0.06732
0.0671081
0.0669991
0.0670163
0.0671753
0.000226181
0.000365395
0.000361647
0.000233788
7.61625e-06
-0.00031063
-0.000714917
-0.00119736
-0.00174968
-0.00236345
-0.00303012
-0.00374119
-0.0044883
-0.00526334
-0.00605859
-0.00686673
-0.00768079
-0.00849421
-0.00930083
-0.0100949
-0.010871
-0.0116241
-0.0123497
-0.0130434
-0.0137014
-0.01432
-0.0148959
-0.015426
-0.0159076
-0.0163382
-0.0167155
-0.0170375
-0.0173026
-0.0175091
-0.0176558
-0.0177414
-0.0177651
-0.017726
-0.0176235
-0.0174572
-0.0172266
-0.0169318
-0.0165726
-0.0161493
-0.0156621
-0.0151113
-0.0144975
-0.0138212
-0.0130832
-0.0122843
-0.0114254
-0.0105076
-0.00953185
-0.00849945
-0.00741163
-0.00626972
-0.00507515
-0.00382943
-0.00253411
-0.00119085
0.000198643
0.00163262
0.00310925
0.00462667
0.00618295
0.00777609
0.00940405
0.0110647
0.012756
0.0144757
0.0162216
0.0179915
0.0197831
0.0215941
0.0234222
0.0252651
0.0271202
0.0289852
0.0308576
0.032735
0.034615
0.036495
0.0383726
0.0402453
0.0421105
0.0439658
0.0458087
0.0476366
0.0494472
0.0512379
0.0530063
0.05475
0.0564666
0.0581537
0.059809
0.0614301
0.0630148
0.0645609
0.0660661
0.0675283
0.0689456
0.0703157
0.0716369
0.0729072
0.0741248
0.075288
0.0763951
0.0774447
0.0784352
0.0793653
0.0802338
0.0810394
0.0817813
0.0824584
0.08307
0.0836154
0.0840942
0.0845059
0.0848503
0.0851274
0.0853372
0.08548
0.0855563
0.0855666
0.0855118
0.0853929
0.085211
0.0849676
0.0846642
0.0843028
0.0838854
0.0834143
0.082892
0.0823215
0.0817057
0.0810482
0.0803524
0.0796225
0.0788626
0.0780773
0.0772717
0.0764509
0.0756205
0.0747866
0.0739554
0.0731336
0.0723283
0.0715469
0.070797
0.0700865
0.0694235
0.0688164
0.0682733
0.0678023
0.0674111
0.0671069
0.0668951
0.0667813
0.0667915
0.0669446
0.000619716
0.000727328
0.000701684
0.000559942
0.000326397
7.81409e-06
-0.000389715
-0.000858783
-0.00139178
-0.001981
-0.00261869
-0.0032971
-0.0040086
-0.00474582
-0.00550168
-0.00626938
-0.00704246
-0.00781476
-0.00858048
-0.00933418
-0.0100708
-0.0107855
-0.0114739
-0.0121319
-0.0127558
-0.013342
-0.0138874
-0.0143889
-0.0148439
-0.0152499
-0.0156047
-0.0159065
-0.0161534
-0.016344
-0.0164769
-0.016551
-0.0165653
-0.016519
-0.0164115
-0.0162423
-0.0160111
-0.0157176
-0.015362
-0.0149442
-0.0144646
-0.0139234
-0.0133211
-0.0126582
-0.0119355
-0.0111537
-0.0103137
-0.00941653
-0.00846313
-0.00745468
-0.00639239
-0.00527756
-0.00411155
-0.00289582
-0.00163189
-0.000321345
0.00103417
0.00243294
0.00387321
0.00535317
0.00687093
0.00842455
0.010012
0.0116314
0.0132805
0.0149573
0.0166596
0.0183853
0.0201321
0.0218978
0.0236801
0.0254767
0.0272853
0.0291035
0.030929
0.0327593
0.0345921
0.0364249
0.0382553
0.040081
0.0418993
0.043708
0.0455046
0.0472867
0.0490518
0.0507976
0.0525217
0.0542217
0.0558953
0.0575402
0.0591541
0.0607348
0.0622801
0.0637877
0.0652557
0.0666818
0.0680642
0.0694008
0.0706898
0.0719294
0.0731177
0.0742532
0.0753343
0.0763594
0.0773273
0.0782365
0.0790859
0.0798743
0.0806009
0.0812647
0.081865
0.0824013
0.0828729
0.0832797
0.0836213
0.0838978
0.0841092
0.0842559
0.0843383
0.084357
0.0843128
0.0842068
0.0840402
0.0838142
0.0835305
0.083191
0.0827976
0.0823526
0.0818585
0.0813181
0.0807344
0.0801106
0.0794503
0.0787574
0.0780358
0.0772901
0.0765249
0.0757452
0.0749563
0.074164
0.0733741
0.0725929
0.0718269
0.0710831
0.0703684
0.0696902
0.0690558
0.0684727
0.0679485
0.0674904
0.0671058
0.0668016
0.0665833
0.0664573
0.0664484
0.0665746
0.00114377
0.00120264
0.00114372
0.000980037
0.000731628
0.00040528
7.00005e-06
-0.000456342
-0.000977762
-0.00155021
-0.00216662
-0.00281995
-0.00350326
-0.00420984
-0.00493318
-0.00566699
-0.00640527
-0.00714229
-0.00787262
-0.00859114
-0.00929303
-0.00997379
-0.0106292
-0.0112554
-0.0118488
-0.0124059
-0.0129237
-0.0133994
-0.0138302
-0.0142139
-0.0145483
-0.0148315
-0.0150618
-0.0152378
-0.0153582
-0.0154217
-0.0154275
-0.0153747
-0.0152627
-0.0150909
-0.0148592
-0.0145672
-0.014215
-0.0138026
-0.0133302
-0.0127981
-0.0122067
-0.0115566
-0.0108484
-0.0100828
-0.00926077
-0.00838311
-0.00745087
-0.00646512
-0.00542705
-0.00433789
-0.00319897
-0.0020117
-0.000777533
0.000501982
0.00182525
0.00319063
0.0045964
0.0060408
0.007522
0.00903812
0.0105872
0.0121673
0.0137764
0.0154125
0.0170734
0.0187571
0.0204614
0.0221841
0.023923
0.0256758
0.0274403
0.0292141
0.030995
0.0327807
0.0345687
0.0363568
0.0381425
0.0399236
0.0416976
0.0434622
0.0452149
0.0469535
0.0486756
0.0503789
0.052061
0.0537197
0.0553527
0.0569578
0.0585326
0.0600751
0.0615831
0.0630545
0.0644873
0.0658794
0.0672289
0.0685339
0.0697925
0.0710031
0.0721639
0.0732733
0.0743298
0.0753319
0.0762784
0.0771679
0.0779993
0.0787716
0.0794838
0.0801351
0.0807247
0.0812523
0.0817172
0.0821191
0.082458
0.0827337
0.0829465
0.0830966
0.0831845
0.0832108
0.0831764
0.0830821
0.0829292
0.0827191
0.0824533
0.0821335
0.0817619
0.0813405
0.0808718
0.0803586
0.0798036
0.0792101
0.0785814
0.0779213
0.0772336
0.0765227
0.0757928
0.0750489
0.0742959
0.0735392
0.0727843
0.072037
0.0713036
0.0705903
0.0699036
0.0692501
0.0686367
0.0680702
0.0675574
0.0671052
0.0667202
0.066409
0.0661771
0.066031
0.065992
0.0660743
0.00178459
0.00178165
0.00167964
0.00148636
0.00121592
0.000874782
0.000468746
4.09464e-06
-0.000512797
-0.0010755
-0.00167763
-0.00231279
-0.00297468
-0.00365718
-0.00435431
-0.00506028
-0.00576952
-0.00647673
-0.00717683
-0.00786503
-0.00853679
-0.00918786
-0.00981427
-0.0104123
-0.0109785
-0.0115097
-0.0120029
-0.0124553
-0.0128643
-0.0132278
-0.0135437
-0.0138102
-0.0140255
-0.0141883
-0.0142972
-0.0143512
-0.0143492
-0.0142905
-0.0141745
-0.0140006
-0.0137686
-0.0134781
-0.0131293
-0.012722
-0.0122565
-0.0117331
-0.0111522
-0.0105142
-0.00981974
-0.0090696
-0.00826453
-0.00740541
-0.00649322
-0.005529
-0.00451388
-0.00344905
-0.0023358
-0.00117549
3.04556e-05
0.00128055
0.00257326
0.00390698
0.00528004
0.00669073
0.00813727
0.00961783
0.0111305
0.0126734
0.0142446
0.0158421
0.0174638
0.0191077
0.0207716
0.0224535
0.0241512
0.0258625
0.0275852
0.029317
0.0310558
0.0327991
0.0345448
0.0362905
0.0380339
0.0397728
0.0415048
0.0432276
0.0449389
0.0466364
0.0483179
0.049981
0.0516235
0.0532432
0.0548378
0.0564052
0.0579431
0.0594496
0.0609225
0.0623597
0.0637593
0.0651193
0.0664378
0.0677129
0.068943
0.0701263
0.0712611
0.072346
0.0733794
0.0743599
0.0752862
0.0761572
0.0769717
0.0777287
0.0784273
0.0790668
0.0796464
0.0801657
0.0806241
0.0810215
0.0813576
0.0816326
0.0818464
0.0819995
0.0820923
0.0821253
0.0820996
0.0820159
0.0818755
0.0816796
0.0814299
0.081128
0.0807759
0.0803757
0.0799298
0.0794407
0.0789114
0.0783447
0.077744
0.0771128
0.0764548
0.0757741
0.0750749
0.0743617
0.0736393
0.0729125
0.0721868
0.0714675
0.0707602
0.0700708
0.0694054
0.06877
0.0681708
0.067614
0.0671059
0.0666527
0.0662607
0.0659357
0.0656834
0.0655098
0.065431
0.0654563
0.00252752
0.00245324
0.00230021
0.0020705
0.0017715
0.00140916
0.000989009
0.0005167
-2.0316e-06
-0.000561375
-0.00115555
-0.0017788
-0.00242543
-0.00308984
-0.00376655
-0.00445025
-0.00513579
-0.00581825
-0.00649294
-0.00715536
-0.00780127
-0.00842667
-0.00902782
-0.00960122
-0.0101436
-0.0106518
-0.011123
-0.0115547
-0.0119443
-0.0122898
-0.0125891
-0.0128404
-0.0130422
-0.0131931
-0.0132917
-0.0133371
-0.0133282
-0.0132643
-0.0131448
-0.0129691
-0.012737
-0.0124482
-0.0121026
-0.0117004
-0.0112415
-0.0107264
-0.0101554
-0.00952892
-0.00884758
-0.00811204
-0.00732308
-0.00648155
-0.00558836
-0.00464452
-0.00365113
-0.00260935
-0.00152042
-0.000385655
0.000793563
0.0020158
0.00327955
0.00458328
0.00592535
0.00730411
0.00871781
0.0101647
0.0116429
0.0131506
0.0146858
0.0162467
0.0178313
0.0194374
0.0210632
0.0227066
0.0243653
0.0260373
0.0277204
0.0294124
0.0311112
0.0328145
0.0345201
0.0362257
0.0379292
0.0396282
0.0413205
0.0430038
0.044676
0.0463347
0.0479777
0.0496029
0.051208
0.0527908
0.0543493
0.0558811
0.0573843
0.0588568
0.0602966
0.0617016
0.06307
0.0643997
0.0656891
0.0669362
0.0681394
0.069297
0.0704075
0.0714692
0.0724808
0.073441
0.0743485
0.075202
0.0760006
0.0767433
0.0774291
0.0780574
0.0786275
0.0791389
0.0795912
0.0799841
0.0803176
0.0805915
0.0808061
0.0809617
0.0810588
0.0810979
0.0810798
0.0810056
0.0808763
0.0806932
0.0804579
0.0801719
0.0798373
0.0794559
0.0790302
0.0785626
0.0780559
0.0775128
0.0769366
0.0763306
0.0756984
0.0750437
0.0743707
0.0736835
0.0729866
0.0722847
0.0715827
0.0708856
0.0701987
0.0695274
0.0688771
0.0682536
0.0676623
0.0671091
0.0665996
0.0661393
0.065734
0.0653892
0.06511
0.0649023
0.0647757
0.0647342
0.00335831
0.0032059
0.0029957
0.00272381
0.00239051
0.00200126
0.00156131
0.00107565
0.000549369
-1.23677e-05
-0.00060436
-0.00122142
-0.00185841
-0.0025102
-0.00317181
-0.00383837
-0.00450516
-0.00516762
-0.00582139
-0.0064623
-0.00708639
-0.00768993
-0.00826939
-0.00882146
-0.00934302
-0.00983115
-0.0102831
-0.0106965
-0.0110689
-0.0113983
-0.0116828
-0.0119207
-0.0121105
-0.0122507
-0.0123402
-0.0123779
-0.0123629
-0.0122945
-0.0121719
-0.0119948
-0.0117628
-0.0114758
-0.0111336
-0.0107362
-0.0102838
-0.00977661
-0.00921503
-0.0085995
-0.00793058
-0.0072089
-0.00643521
-0.00561031
-0.00473511
-0.00381057
-0.00283774
-0.00181776
-0.000751828
0.000358771
0.00151271
0.00270859
0.00394496
0.00522032
0.00653309
0.00788164
0.00926428
0.0106793
0.0121249
0.0135993
0.0151005
0.0166268
0.0181762
0.0197468
0.0213365
0.0229433
0.0245652
0.0262001
0.0278458
0.0295002
0.0311613
0.0328268
0.0344945
0.0361623
0.037828
0.0394894
0.0411442
0.0427903
0.0444256
0.0460477
0.0476545
0.049244
0.0508138
0.052362
0.0538863
0.0553848
0.0568553
0.0582958
0.0597045
0.0610792
0.0624182
0.0637195
0.0649815
0.0662023
0.0673803
0.0685138
0.0696013
0.0706414
0.0716326
0.0725737
0.0734634
0.0743006
0.0750843
0.0758134
0.0764872
0.077105
0.0776661
0.0781701
0.0786165
0.0790051
0.0793358
0.0796087
0.0798238
0.0799815
0.0800822
0.0801265
0.0801153
0.0800494
0.07993
0.0797583
0.0795357
0.0792638
0.0789445
0.0785798
0.0781719
0.0777231
0.0772361
0.0767135
0.0761585
0.0755742
0.0749639
0.0743313
0.0736802
0.0730146
0.0723387
0.0716568
0.0709735
0.0702934
0.0696215
0.0689628
0.0683221
0.0677048
0.0671158
0.0665605
0.0660439
0.065571
0.065147
0.0647767
0.0644651
0.0642175
0.0640369
0.0639216
0.00426357
0.00402833
0.00375627
0.00343751
0.00306509
0.00264401
0.00217927
0.00167519
0.00113621
0.00056689
-2.81227e-05
-0.000644169
-0.0012766
-0.00192079
-0.00257219
-0.00322636
-0.00387896
-0.00452581
-0.00516286
-0.00578626
-0.00639233
-0.00697759
-0.00753872
-0.00807262
-0.00857633
-0.0090471
-0.00948237
-0.00987976
-0.0102371
-0.0105524
-0.010824
-0.01105
-0.0112291
-0.01136
-0.0114414
-0.0114724
-0.0114521
-0.0113797
-0.0112547
-0.0110765
-0.0108449
-0.0105597
-0.0102208
-0.00982816
-0.00938195
-0.00888239
-0.00832983
-0.00772471
-0.00706757
-0.00635902
-0.00559978
-0.00479063
-0.00393242
-0.00302611
-0.0020727
-0.00107332
-2.91176e-05
0.00105866
0.00218872
0.00335972
0.00457023
0.00581881
0.0071039
0.00842394
0.00977726
0.0111622
0.012577
0.0140199
0.0154891
0.0169828
0.018499
0.020036
0.0215916
0.023164
0.0247511
0.0263509
0.0279614
0.0295804
0.0312059
0.0328357
0.0344678
0.0361
0.0377301
0.039356
0.0409756
0.0425867
0.0441872
0.0457749
0.0473477
0.0489035
0.0504403
0.0519558
0.0534481
0.0549152
0.056355
0.0577656
0.059145
0.0604913
0.0618028
0.0630775
0.0643138
0.0655099
0.0666643
0.0677752
0.0688413
0.0698611
0.0708332
0.0717564
0.0726295
0.0734514
0.074221
0.0749375
0.0756001
0.076208
0.0767606
0.0772575
0.0776983
0.0780827
0.0784107
0.0786823
0.0788976
0.079057
0.0791608
0.0792097
0.0792044
0.0791458
0.079035
0.0788732
0.0786617
0.0784022
0.0780964
0.0777462
0.0773537
0.0769211
0.0764511
0.0759461
0.0754091
0.0748431
0.0742513
0.073637
0.073004
0.0723558
0.0716965
0.07103
0.0703608
0.069693
0.0690312
0.0683799
0.0677438
0.0671275
0.0665357
0.0659732
0.0654444
0.0649539
0.0645063
0.0641057
0.0637569
0.0634647
0.0632253
0.0630312
0.005231
0.0049097
0.00457234
0.00420302
0.00378751
0.00333044
0.00283659
0.00230961
0.00175334
0.00117179
0.000569087
-5.0604e-05
-0.000683107
-0.00132425
-0.00196991
-0.00261604
-0.00325868
-0.00389397
-0.00451822
-0.00512784
-0.00571944
-0.00628978
-0.00683576
-0.00735446
-0.00784311
-0.00829912
-0.00872007
-0.00910374
-0.00944808
-0.00975121
-0.0100114
-0.0102271
-0.010397
-0.0105197
-0.0105941
-0.0106193
-0.0105944
-0.0105187
-0.0103917
-0.0102129
-0.00998194
-0.00969871
-0.00936309
-0.0089751
-0.00853486
-0.00804259
-0.00749863
-0.0069034
-0.00625743
-0.00556131
-0.00481573
-0.00402144
-0.00317928
-0.00229017
-0.00135509
-0.000375127
0.000648586
0.00171485
0.0028224
0.00396994
0.00515609
0.00637943
0.00763844
0.0089316
0.0102573
0.0116139
0.0129997
0.014413
0.015852
0.0173149
0.0187999
0.0203052
0.0218288
0.0233687
0.0249231
0.02649
0.0280673
0.0296529
0.031245
0.0328413
0.0344398
0.0360385
0.0376352
0.0392278
0.0408143
0.0423924
0.0439603
0.0455157
0.0470566
0.0485809
0.0500866
0.0515716
0.0530339
0.0544716
0.0558826
0.0572651
0.0586172
0.059937
0.0612227
0.0624725
0.0636848
0.0648579
0.0659901
0.06708
0.0681261
0.0691269
0.0700812
0.0709877
0.0718453
0.0726528
0.0734094
0.074114
0.074766
0.0753646
0.0759092
0.0763994
0.0768348
0.0772153
0.0775406
0.0778108
0.078026
0.0781866
0.078293
0.0783457
0.0783455
0.0782932
0.0781898
0.0780365
0.0778347
0.0775859
0.0772916
0.0769539
0.0765746
0.0761559
0.0757002
0.0752101
0.0746882
0.0741373
0.0735606
0.0729611
0.0723423
0.0717077
0.071061
0.0704059
0.0697464
0.0690864
0.0684301
0.0677818
0.0671456
0.0665257
0.0659265
0.065352
0.0648066
0.0642941
0.0638185
0.0633834
0.0629934
0.0626529
0.0623511
0.0620749
0.00624925
0.00583993
0.00543482
0.0050121
0.00455029
0.00405372
0.00352704
0.00297326
0.00239567
0.00179777
0.0011832
0.000555668
-8.10889e-05
-0.000723329
-0.00136733
-0.0020094
-0.00264595
-0.00327344
-0.00388849
-0.00448782
-0.00506827
-0.00562684
-0.00616065
-0.00666695
-0.00714316
-0.00758686
-0.00799579
-0.00836786
-0.00870115
-0.00899387
-0.00924441
-0.0094513
-0.00961321
-0.00972893
-0.00979738
-0.00981765
-0.00978892
-0.00971054
-0.00958198
-0.00940282
-0.00917278
-0.00889165
-0.00855934
-0.00817589
-0.00774141
-0.00725612
-0.00672035
-0.00613452
-0.00549913
-0.00481476
-0.00408207
-0.00330181
-0.00247477
-0.00160185
-0.000684033
0.000277646
0.00128208
0.0023281
0.00341448
0.00453996
0.0057032
0.00690279
0.00813729
0.00940517
0.0107049
0.0120348
0.0133934
0.0147788
0.0161894
0.0176234
0.0190791
0.0205546
0.0220481
0.0235576
0.0250813
0.0266172
0.0281633
0.0297177
0.0312783
0.0328432
0.0344103
0.0359775
0.0375429
0.0391043
0.0406597
0.0422071
0.0437444
0.0452696
0.0467806
0.0482754
0.049752
0.0512085
0.0526428
0.054053
0.0554372
0.0567935
0.05812
0.059415
0.0606767
0.0619034
0.0630933
0.0642449
0.0653566
0.0664269
0.0674543
0.0684375
0.0693752
0.0702661
0.0711093
0.0719035
0.0726478
0.0733414
0.0739835
0.0745733
0.0751105
0.0755944
0.0760247
0.0764012
0.0767238
0.0769925
0.0772074
0.0773689
0.0774773
0.0775331
0.0775372
0.0774901
0.0773931
0.0772471
0.0770535
0.0768137
0.0765293
0.076202
0.0758338
0.0754267
0.074983
0.0745051
0.0739954
0.0734567
0.0728919
0.072304
0.071696
0.0710714
0.0704335
0.0697859
0.0691321
0.0684759
0.0678211
0.0671715
0.0665309
0.0659033
0.0652923
0.064702
0.0641358
0.0635974
0.06309
0.0626169
0.0621824
0.0617908
0.0614241
0.0610635
0.00730798
0.00680964
0.00633516
0.0058569
0.00534623
0.00480726
0.00424456
0.00366061
0.00305817
0.00244029
0.00181015
0.00117103
0.000526252
-0.00012083
-0.000766866
-0.00140853
-0.00204253
-0.00266569
-0.0032749
-0.00386716
-0.00443955
-0.00498928
-0.00551368
-0.00601021
-0.00647646
-0.00691018
-0.00730926
-0.00767175
-0.00799583
-0.00827985
-0.00852229
-0.00872175
-0.00887697
-0.00898681
-0.00905026
-0.00906644
-0.0090346
-0.00895413
-0.00882452
-0.00864539
-0.00841646
-0.00813754
-0.00780856
-0.00742955
-0.00700063
-0.00652202
-0.00599405
-0.00541713
-0.00479174
-0.00411846
-0.00339793
-0.00263086
-0.00181804
-0.000960359
-5.87545e-05
0.000885749
0.00187208
0.00289909
0.00396561
0.0050704
0.00621213
0.00738946
0.00860095
0.00984513
0.0111205
0.0124254
0.0137584
0.0151177
0.0165017
0.0179087
0.0193369
0.0207845
0.0222497
0.0237308
0.0252257
0.0267326
0.0282495
0.0297746
0.0313059
0.0328413
0.034379
0.0359168
0.0374529
0.0389852
0.0405116
0.0420302
0.043539
0.045036
0.0465191
0.0479864
0.049436
0.0508658
0.052274
0.0536586
0.0550178
0.0563497
0.0576526
0.0589246
0.0601639
0.061369
0.0625382
0.0636699
0.0647625
0.0658145
0.0668246
0.0677915
0.0687138
0.0695903
0.07042
0.0712019
0.0719349
0.0726182
0.073251
0.0738328
0.0743629
0.0748408
0.0752663
0.075639
0.075959
0.0762261
0.0764405
0.0766024
0.0767123
0.0767707
0.0767782
0.0767356
0.0766438
0.0765039
0.0763171
0.0760848
0.0758085
0.0754899
0.0751308
0.0747332
0.0742991
0.0738308
0.0733308
0.0728015
0.0722457
0.0716662
0.0710659
0.0704479
0.0698154
0.0691716
0.06852
0.0678638
0.0672066
0.066552
0.0659032
0.065264
0.0646377
0.0640277
0.0634373
0.0628695
0.0623273
0.0618132
0.0613316
0.0608865
0.0604531
0.060007
0.00839783
0.00781022
0.00726535
0.00672997
0.00616841
0.00558466
0.00498328
0.0043663
0.00373595
0.0030949
0.00244592
0.00179187
0.0011357
0.000480395
-0.000171033
-0.000815592
-0.00145032
-0.00207233
-0.00267879
-0.00326695
-0.00383413
-0.00437775
-0.00489534
-0.00538455
-0.00584317
-0.00626909
-0.00666036
-0.00701516
-0.00733181
-0.00760876
-0.00784457
-0.00803793
-0.00818767
-0.00829269
-0.00835206
-0.00836497
-0.00833071
-0.0082487
-0.0081185
-0.00793972
-0.00771212
-0.00743552
-0.00710987
-0.0067352
-0.00631164
-0.00583943
-0.00531887
-0.00475039
-0.00413445
-0.00347162
-0.00276251
-0.00200783
-0.00120836
-0.000364962
0.000521442
0.00144985
0.00241923
0.00342846
0.00447639
0.0055618
0.00668342
0.00783991
0.00902989
0.0102519
0.0115045
0.0127861
0.0140951
0.01543
0.0167891
0.0181708
0.0195733
0.0209949
0.0224338
0.0238882
0.0253562
0.026836
0.0283258
0.0298235
0.0313274
0.0328354
0.0343456
0.0358561
0.0373649
0.03887
0.0403695
0.0418613
0.0433436
0.0448143
0.0462715
0.0477133
0.0491377
0.0505428
0.0519268
0.0532877
0.0546237
0.055933
0.0572139
0.0584645
0.0596833
0.0608684
0.0620184
0.0631316
0.0642066
0.0652418
0.066236
0.0671877
0.0680958
0.0689591
0.0697764
0.0705468
0.0712693
0.0719431
0.0725674
0.0731416
0.0736651
0.0741375
0.0745584
0.0749275
0.0752448
0.0755102
0.0757238
0.075886
0.0759969
0.0760572
0.0760674
0.0760283
0.0759408
0.0758058
0.0756246
0.0753984
0.0751287
0.074817
0.0744651
0.0740748
0.0736482
0.0731873
0.0726944
0.072172
0.0716224
0.0710485
0.0704528
0.0698384
0.0692081
0.0685649
0.067912
0.0672525
0.0665895
0.0659263
0.065266
0.0646118
0.0639668
0.0633339
0.0627161
0.0621161
0.0615363
0.0609788
0.060448
0.0599477
0.0594465
0.0589144
0.00951031
0.00883366
0.00821791
0.00762428
0.00701026
0.00637983
0.00573758
0.00508512
0.00442427
0.00375728
0.00308656
0.00241461
0.00174403
0.00107747
0.000417617
-0.000232857
-0.000871293
-0.00149507
-0.00210162
-0.00268841
-0.00325301
-0.00379303
-0.00430623
-0.00479042
-0.00524357
-0.00566374
-0.00604913
-0.00639805
-0.00670892
-0.00698032
-0.0072109
-0.00739943
-0.00754481
-0.00764603
-0.00770221
-0.00771261
-0.00767658
-0.00759359
-0.0074632
-0.00728509
-0.00705901
-0.00678483
-0.0064625
-0.00609208
-0.00567369
-0.00520758
-0.00469407
-0.00413356
-0.00352653
-0.0028735
-0.00217511
-0.00143204
-0.000645059
0.000184985
0.00105718
0.00197057
0.00292411
0.00391674
0.00494733
0.00601468
0.00711754
0.0082546
0.00942451
0.0106259
0.0118572
0.013117
0.0144038
0.0157159
0.0170519
0.01841
0.0197886
0.0211859
0.0226003
0.0240299
0.0254729
0.0269276
0.028392
0.0298643
0.0313427
0.0328253
0.03431
0.0357951
0.0372786
0.0387585
0.0402329
0.0417
0.0431576
0.0446041
0.0460373
0.0474554
0.0488566
0.0502388
0.0516004
0.0529394
0.054254
0.0555425
0.0568031
0.0580341
0.0592338
0.0604006
0.0615329
0.0626292
0.0636879
0.0647077
0.0656872
0.066625
0.0675201
0.0683711
0.0691771
0.0699369
0.0706498
0.0713149
0.0719313
0.0724985
0.073016
0.0734831
0.0738997
0.0742653
0.07458
0.0748437
0.0750564
0.0752184
0.07533
0.0753916
0.0754039
0.0753675
0.0752833
0.0751522
0.0749753
0.0747538
0.0744891
0.0741828
0.0738363
0.0734515
0.0730303
0.0725746
0.0720866
0.0715685
0.0710227
0.0704516
0.0698579
0.0692441
0.0686131
0.0679675
0.0673103
0.0666443
0.0659724
0.0652975
0.0646226
0.0639503
0.0632836
0.0626251
0.0619773
0.0613425
0.0607228
0.06012
0.0595383
0.0589816
0.058412
0.0577939
0.0106377
0.00987258
0.00918582
0.00853321
0.0078656
0.00718698
0.00650207
0.0058121
0.0051185
0.00442317
0.00372818
0.00303571
0.00234804
0.00166751
0.000996489
0.000337364
-0.000307484
-0.000935688
-0.00154491
-0.00213286
-0.00269729
-0.00323606
-0.00374709
-0.0042284
-0.00467812
-0.00509446
-0.00547576
-0.00582046
-0.00612713
-0.00639441
-0.00662107
-0.00680596
-0.00694804
-0.00704641
-0.00710025
-0.00710887
-0.00707169
-0.00698821
-0.00685804
-0.00668087
-0.00645651
-0.00618484
-0.00586582
-0.00549953
-0.00508612
-0.00462583
-0.00411899
-0.003566
-0.00296731
-0.00232348
-0.0016351
-0.000902869
-0.000127541
0.000690054
0.00154902
0.00244842
0.00338724
0.00436444
0.0053789
0.00642946
0.00751489
0.0086339
0.00978517
0.0109673
0.0121789
0.0134185
0.0146846
0.0159757
0.0172901
0.0186264
0.0199828
0.0213576
0.0227492
0.0241558
0.0255757
0.0270071
0.0284481
0.0298969
0.0313517
0.0328107
0.0342719
0.0357335
0.0371935
0.0386502
0.0401015
0.0415456
0.0429806
0.0444046
0.0458158
0.0472121
0.0485919
0.0499531
0.0512941
0.052613
0.053908
0.0551773
0.0564193
0.0576323
0.0588146
0.0599646
0.0610807
0.0621615
0.0632054
0.0642111
0.0651772
0.0661024
0.0669855
0.0678254
0.0686209
0.0693712
0.0700753
0.0707324
0.0713416
0.0719024
0.0724142
0.0728765
0.073289
0.0736514
0.0739636
0.0742254
0.074437
0.0745986
0.0747105
0.074773
0.0747867
0.0747522
0.0746704
0.0745422
0.0743685
0.0741505
0.0738895
0.0735869
0.0732442
0.0728631
0.0724454
0.0719929
0.0715077
0.0709917
0.0704473
0.0698767
0.0692822
0.0686665
0.068032
0.0673813
0.0667169
0.0660416
0.0653579
0.0646686
0.0639762
0.0632833
0.0625923
0.0619055
0.0612254
0.0605538
0.0598923
0.0592425
0.0586087
0.0579949
0.0573565
0.056653
0.011773
0.0109202
0.0101626
0.00945059
0.00872859
0.00800065
0.00727164
0.00654246
0.0058142
0.00508846
0.004367
0.00365171
0.00294457
0.00224762
0.00156297
0.000892719
0.000239011
-0.000396027
-0.00101028
-0.00160168
-0.00216819
-0.00270785
-0.00321878
-0.00369919
-0.00414736
-0.00456165
-0.00494054
-0.00528261
-0.00558653
-0.00585103
-0.00607499
-0.00625735
-0.00639715
-0.00649356
-0.00654585
-0.00655338
-0.00651561
-0.00643212
-0.00630252
-0.00612658
-0.0059041
-0.00563499
-0.00531926
-0.00495699
-0.00454836
-0.0040936
-0.00359306
-0.00304713
-0.00245626
-0.001821
-0.00114195
-0.000419802
0.000344701
0.00115074
0.00199744
0.00288387
0.00380906
0.00477197
0.00577151
0.00680653
0.00787583