/*--------------------------------*- C++ -*----------------------------------*\
  =========                 |
  \\      /  F ield         | OpenFOAM: The Open Source CFD Toolbox
   \\    /   O peration     | Website:  https://openfoam.org
    \\  /    A nd           | Version:  7
     \\/     M anipulation  |
\*---------------------------------------------------------------------------*/
FoamFile
{
    version     2.0;
    format      ascii;
    class       surfaceScalarField;
    location    "0.3875";
    object      phi;
}
// * * * * * * * * * * * * * * * * * * * * * * * * * * * * * * * * * * * * * //

dimensions      [0 3 -1 0 0 0 0];

internalField   nonuniform List<scalar> 
50880
(
5.88881e-12
-6.33767e-12
3.6171e-11
-3.02536e-11
8.1092e-11
-4.49275e-11
1.30733e-10
-4.96602e-11
1.77977e-10
-4.72514e-11
2.17854e-10
-3.98756e-11
2.46946e-10
-2.90779e-11
2.62912e-10
-1.59687e-11
2.64235e-10
-1.32998e-12
2.49954e-10
1.42755e-11
2.19511e-10
3.04413e-11
1.72648e-10
4.68677e-11
1.09322e-10
6.33294e-11
2.96619e-11
7.96589e-11
-6.60671e-11
9.57266e-11
-1.77498e-10
1.1143e-10
-3.04188e-10
1.2669e-10
-4.45635e-10
1.41447e-10
-6.01289e-10
1.55654e-10
-7.70564e-10
1.69275e-10
-9.52845e-10
1.82281e-10
-1.1475e-09
1.9465e-10
-1.35386e-09
2.06368e-10
-1.57129e-09
2.17423e-10
-1.79909e-09
2.27808e-10
-2.03661e-09
2.3752e-10
-2.28317e-09
2.46556e-10
-2.53808e-09
2.54918e-10
-2.80069e-09
2.62606e-10
-3.07032e-09
2.69625e-10
-3.3463e-09
2.75981e-10
-3.62798e-09
2.8168e-10
-3.91471e-09
2.86731e-10
-4.20586e-09
2.91142e-10
-4.50078e-09
2.94922e-10
-4.79885e-09
2.9808e-10
-5.09948e-09
3.00625e-10
-5.40205e-09
3.0257e-10
-5.70597e-09
3.03924e-10
-6.01067e-09
3.047e-10
-6.31558e-09
3.04909e-10
-6.62014e-09
3.04563e-10
-6.92382e-09
3.03673e-10
-7.22607e-09
3.02253e-10
-7.52638e-09
3.00315e-10
-7.82425e-09
2.97871e-10
-8.11919e-09
2.94934e-10
-8.41071e-09
2.91517e-10
-8.69834e-09
2.87632e-10
-8.98163e-09
2.83293e-10
-9.26014e-09
2.78512e-10
-9.53344e-09
2.73302e-10
-9.80112e-09
2.67677e-10
-1.00628e-08
2.6165e-10
-1.0318e-08
2.55233e-10
-1.05664e-08
2.4844e-10
-1.08077e-08
2.41283e-10
-1.10415e-08
2.33777e-10
-1.12674e-08
2.25934e-10
-1.14852e-08
2.17767e-10
-1.16945e-08
2.09292e-10
-1.1895e-08
2.00519e-10
-1.20865e-08
1.91463e-10
-1.22686e-08
1.82137e-10
-1.24412e-08
1.72555e-10
-1.26039e-08
1.62729e-10
-1.27566e-08
1.52676e-10
-1.2899e-08
1.42407e-10
-1.30309e-08
1.31937e-10
-1.31522e-08
1.21279e-10
-1.32626e-08
1.10448e-10
-1.33621e-08
9.94566e-11
-1.34504e-08
8.83206e-11
-1.35275e-08
7.70539e-11
-1.35931e-08
6.56708e-11
-1.36473e-08
5.41858e-11
-1.36899e-08
4.26135e-11
-1.37209e-08
3.09689e-11
-1.37402e-08
1.92672e-11
-1.37477e-08
7.52346e-12
-1.37434e-08
-4.24713e-12
-1.37274e-08
-1.60293e-11
-1.36996e-08
-2.78077e-11
-1.366e-08
-3.95664e-11
-1.36087e-08
-5.12897e-11
-1.35458e-08
-6.29615e-11
-1.34712e-08
-7.45657e-11
-1.33851e-08
-8.60861e-11
-1.32876e-08
-9.75063e-11
-1.31788e-08
-1.0881e-10
-1.30588e-08
-1.19981e-10
-1.29278e-08
-1.31002e-10
-1.2786e-08
-1.41857e-10
-1.26334e-08
-1.52528e-10
-1.24704e-08
-1.62999e-10
-1.22972e-08
-1.73252e-10
-1.21139e-08
-1.83271e-10
-1.19209e-08
-1.93039e-10
-1.17183e-08
-2.02538e-10
-1.15066e-08
-2.11751e-10
-1.12859e-08
-2.20662e-10
-1.10567e-08
-2.29253e-10
-1.08192e-08
-2.37507e-10
-1.05738e-08
-2.45407e-10
-1.03208e-08
-2.52937e-10
-1.00607e-08
-2.6008e-10
-9.79392e-09
-2.66819e-10
-9.52078e-09
-2.73138e-10
-9.24176e-09
-2.7902e-10
-8.95731e-09
-2.84451e-10
-8.6679e-09
-2.89414e-10
-8.374e-09
-2.93893e-10
-8.07613e-09
-2.97875e-10
-7.77479e-09
-3.01343e-10
-7.4705e-09
-3.04284e-10
-7.16382e-09
-3.06683e-10
-6.85529e-09
-3.08527e-10
-6.54549e-09
-3.09803e-10
-6.23499e-09
-3.10499e-10
-5.92439e-09
-3.10602e-10
-5.61429e-09
-3.10101e-10
-5.3053e-09
-3.08985e-10
-4.99806e-09
-3.07244e-10
-4.69319e-09
-3.04868e-10
-4.39134e-09
-3.0185e-10
-4.09316e-09
-2.98181e-10
-3.7993e-09
-2.93855e-10
-3.51044e-09
-2.88864e-10
-3.22723e-09
-2.83205e-10
-2.95036e-09
-2.76875e-10
-2.68049e-09
-2.69869e-10
-2.41831e-09
-2.62188e-10
-2.16448e-09
-2.5383e-10
-1.91968e-09
-2.44799e-10
-1.68458e-09
-2.35098e-10
-1.45985e-09
-2.24734e-10
-1.24613e-09
-2.13716e-10
-1.04407e-09
-2.02054e-10
-8.5431e-10
-1.89764e-10
-6.77445e-10
-1.76865e-10
-5.14067e-10
-1.63381e-10
-3.64732e-10
-1.4934e-10
-2.29957e-10
-1.34776e-10
-1.1022e-10
-1.19735e-10
-5.94158e-12
-1.04276e-10
8.25252e-11
-8.84657e-11
1.54914e-10
-7.23908e-11
2.1107e-10
-5.61581e-11
2.50974e-10
-3.99049e-11
2.74782e-10
-2.38082e-11
2.82884e-10
-8.09907e-12
2.75967e-10
6.91772e-12
2.55127e-10
2.08363e-11
2.2202e-10
3.31019e-11
1.79089e-10
4.29346e-11
1.29858e-10
4.92396e-11
7.9344e-11
5.05206e-11
3.46151e-11
4.47289e-11
5.3275e-12
2.92823e-11
5.31621e-12
3.00474e-11
-3.63535e-11
1.01162e-10
-1.01385e-10
1.95448e-10
-1.39168e-10
2.9578e-10
-1.49984e-10
3.878e-10
-1.39301e-10
4.60299e-10
-1.12392e-10
5.04827e-10
-7.35915e-11
5.15172e-10
-2.63028e-11
4.86938e-10
2.68983e-11
4.17135e-10
8.40678e-11
3.03845e-10
1.43724e-10
1.45985e-10
2.04732e-10
-5.68829e-11
2.66209e-10
-3.0469e-10
3.27472e-10
-5.96958e-10
3.87991e-10
-9.32885e-10
4.47352e-10
-1.31142e-09
5.05222e-10
-1.73131e-09
5.61339e-10
-2.19115e-09
6.15497e-10
-2.6894e-09
6.6753e-10
-3.22443e-09
7.17312e-10
-3.79453e-09
7.64742e-10
-4.3979e-09
8.09746e-10
-5.03275e-09
8.52267e-10
-5.6972e-09
8.92265e-10
-6.38939e-09
9.29713e-10
-7.10743e-09
9.64597e-10
-7.84942e-09
9.96909e-10
-8.61347e-09
1.02665e-09
-9.39768e-09
1.05383e-09
-1.02002e-08
1.07847e-09
-1.10191e-08
1.10058e-09
-1.18525e-08
1.12018e-09
-1.26987e-08
1.13732e-09
-1.35558e-08
1.15202e-09
-1.4422e-08
1.1643e-09
-1.52956e-08
1.17422e-09
-1.61748e-08
1.1818e-09
-1.7058e-08
1.1871e-09
-1.79435e-08
1.19014e-09
-1.88295e-08
1.19097e-09
-1.97146e-08
1.18965e-09
-2.05971e-08
1.1862e-09
-2.14756e-08
1.18069e-09
-2.23484e-08
1.17315e-09
-2.32142e-08
1.16364e-09
-2.40715e-08
1.15221e-09
-2.49188e-08
1.13889e-09
-2.57549e-08
1.12375e-09
-2.65785e-08
1.10683e-09
-2.73881e-08
1.08818e-09
-2.81827e-08
1.06785e-09
-2.89609e-08
1.0459e-09
-2.97216e-08
1.02237e-09
-3.04637e-08
9.97313e-10
-3.11861e-08
9.70782e-10
-3.18876e-08
9.42828e-10
-3.25673e-08
9.13502e-10
-3.32243e-08
8.82858e-10
-3.38574e-08
8.50947e-10
-3.4466e-08
8.17821e-10
-3.5049e-08
7.83531e-10
-3.56056e-08
7.48131e-10
-3.61352e-08
7.11674e-10
-3.66368e-08
6.74212e-10
-3.71099e-08
6.35799e-10
-3.75537e-08
5.9649e-10
-3.79676e-08
5.56338e-10
-3.83511e-08
5.15398e-10
-3.87035e-08
4.73723e-10
-3.90245e-08
4.3137e-10
-3.93134e-08
3.88393e-10
-3.95699e-08
3.44849e-10
-3.97937e-08
3.00795e-10
-3.99843e-08
2.56286e-10
-4.01415e-08
2.1138e-10
-4.0265e-08
1.66135e-10
-4.03546e-08
1.2061e-10
-4.04102e-08
7.48638e-11
-4.04317e-08
2.89551e-11
-4.04189e-08
-1.70559e-11
-4.03718e-08
-6.3109e-11
-4.02905e-08
-1.09143e-10
-4.01749e-08
-1.55097e-10
-4.00253e-08
-2.00908e-10
-3.98418e-08
-2.46514e-10
-3.96245e-08
-2.91852e-10
-3.93737e-08
-3.36858e-10
-3.90897e-08
-3.81469e-10
-3.87729e-08
-4.25619e-10
-3.84237e-08
-4.69245e-10
-3.80424e-08
-5.1228e-10
-3.76296e-08
-5.5466e-10
-3.71858e-08
-5.96318e-10
-3.67116e-08
-6.37189e-10
-3.62077e-08
-6.77205e-10
-3.56746e-08
-7.16301e-10
-3.51133e-08
-7.5441e-10
-3.45243e-08
-7.91466e-10
-3.39087e-08
-8.27401e-10
-3.32672e-08
-8.6215e-10
-3.26008e-08
-8.95646e-10
-3.19105e-08
-9.27822e-10
-3.11973e-08
-9.58615e-10
-3.04623e-08
-9.87958e-10
-2.97065e-08
-1.01579e-09
-2.89313e-08
-1.04204e-09
-2.81378e-08
-1.06665e-09
-2.73273e-08
-1.08955e-09
-2.65011e-08
-1.11069e-09
-2.56605e-08
-1.13e-09
-2.48069e-08
-1.14743e-09
-2.39419e-08
-1.16291e-09
-2.30668e-08
-1.1764e-09
-2.21833e-08
-1.18783e-09
-2.12928e-08
-1.19715e-09
-2.0397e-08
-1.20431e-09
-1.94976e-08
-1.20926e-09
-1.85961e-08
-1.21196e-09
-1.76944e-08
-1.21235e-09
-1.67941e-08
-1.21039e-09
-1.5897e-08
-1.20606e-09
-1.5005e-08
-1.19929e-09
-1.41198e-08
-1.19007e-09
-1.32432e-08
-1.17837e-09
-1.23773e-08
-1.16414e-09
-1.15238e-08
-1.14738e-09
-1.06846e-08
-1.12805e-09
-9.86162e-09
-1.10615e-09
-9.05683e-09
-1.08167e-09
-8.27212e-09
-1.05459e-09
-7.50939e-09
-1.02492e-09
-6.77055e-09
-9.92664e-10
-6.05751e-09
-9.5784e-10
-5.37214e-09
-9.20467e-10
-4.7163e-09
-8.80579e-10
-4.09179e-09
-8.38217e-10
-3.50041e-09
-7.93436e-10
-2.94388e-09
-7.46303e-10
-2.42384e-09
-6.96904e-10
-1.94188e-09
-6.45343e-10
-1.49947e-09
-5.91751e-10
-1.09796e-09
-5.36284e-10
-7.38557e-10
-4.79137e-10
-4.2229e-10
-4.20544e-10
-1.49959e-10
-3.60798e-10
7.79019e-11
-3.00254e-10
2.611e-10
-2.39359e-10
3.99858e-10
-1.78666e-10
4.94921e-10
-1.18876e-10
5.47699e-10
-6.08759e-11
5.60439e-10
-5.81271e-12
5.36457e-10
4.48302e-11
4.80438e-10
8.91239e-11
3.98822e-10
1.24545e-10
3.00245e-10
1.4781e-10
1.95975e-10
1.54789e-10
1.00162e-10
1.40546e-10
2.92729e-11
1.00176e-10
3.45858e-11
4.48439e-11
-8.12075e-11
1.39114e-10
-1.9569e-10
2.56363e-10
-2.56419e-10
3.74958e-10
-2.68553e-10
4.76595e-10
-2.40929e-10
5.46406e-10
-1.82209e-10
5.72695e-10
-9.98879e-11
5.46503e-10
-1.13677e-13
4.61194e-10
1.12206e-10
3.12028e-10
2.33234e-10
9.58143e-11
3.59941e-10
-1.89403e-10
4.8995e-10
-5.44573e-10
6.21379e-10
-9.69841e-10
7.52739e-10
-1.4647e-09
8.82847e-10
-2.02811e-09
1.01076e-09
-2.65862e-09
1.13573e-09
-3.35442e-09
1.25714e-09
-4.11344e-09
1.37452e-09
-4.93337e-09
1.48746e-09
-5.81173e-09
1.59567e-09
-6.7459e-09
1.6989e-09
-7.73312e-09
1.79697e-09
-8.77057e-09
1.88972e-09
-9.85536e-09
1.97706e-09
-1.09845e-08
2.0589e-09
-1.21551e-08
2.1352e-09
-1.33642e-08
2.20592e-09
-1.46086e-08
2.27107e-09
-1.58854e-08
2.33064e-09
-1.71916e-08
2.38467e-09
-1.85242e-08
2.43319e-09
-1.98803e-08
2.47625e-09
-2.12568e-08
2.51389e-09
-2.2651e-08
2.54618e-09
-2.40599e-08
2.57319e-09
-2.54807e-08
2.595e-09
-2.69106e-08
2.61168e-09
-2.83468e-08
2.62333e-09
-2.97867e-08
2.63002e-09
-3.12275e-08
2.63185e-09
-3.26668e-08
2.62892e-09
-3.41019e-08
2.62132e-09
-3.55304e-08
2.60916e-09
-3.69498e-08
2.59254e-09
-3.83577e-08
2.57155e-09
-3.97518e-08
2.54631e-09
-4.11298e-08
2.51692e-09
-4.24896e-08
2.48349e-09
-4.38289e-08
2.44613e-09
-4.51456e-08
2.40495e-09
-4.64378e-08
2.36005e-09
-4.77035e-08
2.31156e-09
-4.89407e-08
2.25957e-09
-5.01476e-08
2.20421e-09
-5.13224e-08
2.14559e-09
-5.24634e-08
2.08381e-09
-5.35689e-08
2.019e-09
-5.46373e-08
1.95127e-09
-5.5667e-08
1.88073e-09
-5.66567e-08
1.8075e-09
-5.76049e-08
1.73169e-09
-5.85102e-08
1.65343e-09
-5.93713e-08
1.57282e-09
-6.01871e-08
1.49e-09
-6.09564e-08
1.40506e-09
-6.1678e-08
1.31815e-09
-6.2351e-08
1.22936e-09
-6.29745e-08
1.13883e-09
-6.35474e-08
1.04668e-09
-6.40691e-08
9.53027e-10
-6.45387e-08
8.57996e-10
-6.49555e-08
7.61711e-10
-6.53191e-08
6.64298e-10
-6.56287e-08
5.65883e-10
-6.58839e-08
4.66594e-10
-6.60843e-08
3.66558e-10
-6.62296e-08
2.65905e-10
-6.63195e-08
1.64766e-10
-6.63538e-08
6.32733e-11
-6.63324e-08
-3.84415e-11
-6.62553e-08
-1.40244e-10
-6.61224e-08
-2.41999e-10
-6.59339e-08
-3.4357e-10
-6.569e-08
-4.4482e-10
-6.53909e-08
-5.4561e-10
-6.5037e-08
-6.458e-10
-6.46286e-08
-7.45251e-10
-6.41662e-08
-8.43819e-10
-6.36505e-08
-9.41364e-10
-6.3082e-08
-1.03774e-09
-6.24615e-08
-1.13281e-09
-6.17897e-08
-1.22641e-09
-6.10676e-08
-1.31842e-09
-6.02961e-08
-1.40868e-09
-5.94763e-08
-1.49704e-09
-5.86092e-08
-1.58337e-09
-5.76961e-08
-1.6675e-09
-5.67383e-08
-1.7493e-09
-5.57371e-08
-1.82862e-09
-5.46939e-08
-1.90531e-09
-5.36103e-08
-1.97923e-09
-5.24879e-08
-2.05023e-09
-5.13284e-08
-2.11817e-09
-5.01334e-08
-2.1829e-09
-4.89049e-08
-2.24428e-09
-4.76448e-08
-2.30218e-09
-4.6355e-08
-2.35645e-09
-4.50376e-08
-2.40695e-09
-4.36947e-08
-2.45356e-09
-4.23286e-08
-2.49614e-09
-4.09414e-08
-2.53455e-09
-3.95357e-08
-2.56868e-09
-3.81137e-08
-2.5984e-09
-3.66779e-08
-2.62359e-09
-3.52309e-08
-2.64414e-09
-3.37753e-08
-2.65992e-09
-3.23137e-08
-2.67085e-09
-3.08489e-08
-2.6768e-09
-2.93835e-08
-2.67769e-09
-2.79205e-08
-2.67343e-09
-2.64626e-08
-2.66392e-09
-2.50128e-08
-2.64909e-09
-2.3574e-08
-2.62887e-09
-2.21492e-08
-2.6032e-09
-2.07413e-08
-2.57201e-09
-1.93535e-08
-2.53525e-09
-1.79886e-08
-2.4929e-09
-1.66498e-08
-2.44492e-09
-1.53402e-08
-2.39129e-09
-1.40628e-08
-2.33201e-09
-1.28206e-08
-2.26709e-09
-1.16167e-08
-2.19656e-09
-1.04541e-08
-2.12045e-09
-9.33577e-09
-2.03882e-09
-8.26459e-09
-1.95176e-09
-7.24344e-09
-1.85937e-09
-6.27508e-09
-1.76179e-09
-5.3622e-09
-1.65918e-09
-4.50735e-09
-1.55175e-09
-3.71294e-09
-1.43976e-09
-2.98119e-09
-1.3235e-09
-2.31413e-09
-1.20334e-09
-1.71353e-09
-1.07975e-09
-1.18082e-09
-9.53253e-10
-7.17096e-10
-8.24523e-10
-3.22985e-10
-6.94367e-10
1.43762e-12
-5.6378e-10
2.56765e-10
-4.33988e-10
4.44411e-10
-3.06515e-10
5.66793e-10
-1.83259e-10
6.27578e-10
-6.66025e-11
6.31955e-10
4.04508e-11
5.86972e-10
1.34109e-10
5.0191e-10
2.09605e-10
3.88696e-10
2.61021e-10
2.62238e-10
2.81246e-10
1.40576e-10
2.62214e-10
4.47124e-11
1.96039e-10
7.92995e-11
4.97135e-11
-1.30894e-10
1.50289e-10
-2.96282e-10
2.69132e-10
-3.75307e-10
3.81098e-10
-3.80513e-10
4.65351e-10
-3.25163e-10
5.04814e-10
-2.21666e-10
4.85768e-10
-8.08536e-11
3.97448e-10
8.81912e-11
2.31625e-10
2.78023e-10
-1.77525e-11
4.82616e-10
-3.54919e-10
6.97118e-10
-7.8259e-10
9.17625e-10
-1.30222e-09
1.141e-09
-1.91421e-09
1.36473e-09
-2.61812e-09
1.58675e-09
-3.41279e-09
1.80544e-09
-4.2965e-09
2.01944e-09
-5.26702e-09
2.22767e-09
-6.32177e-09
2.42926e-09
-7.4578e-09
2.6235e-09
-8.67194e-09
2.80981e-09
-9.96079e-09
2.98775e-09
-1.13208e-08
3.15694e-09
-1.27482e-08
3.31712e-09
-1.42392e-08
3.46807e-09
-1.57899e-08
3.60963e-09
-1.73964e-08
3.74169e-09
-1.90547e-08
3.86419e-09
-2.07607e-08
3.97709e-09
-2.25104e-08
4.08039e-09
-2.42999e-08
4.17412e-09
-2.6125e-08
4.25833e-09
-2.79818e-08
4.33308e-09
-2.98664e-08
4.39845e-09
-3.17748e-08
4.45454e-09
-3.3703e-08
4.50147e-09
-3.56474e-08
4.53936e-09
-3.7604e-08
4.56833e-09
-3.95693e-08
4.58854e-09
-4.15394e-08
4.60012e-09
-4.35107e-08
4.60324e-09
-4.54799e-08
4.59805e-09
-4.74433e-08
4.58473e-09
-4.93976e-08
4.56344e-09
-5.13394e-08
4.53436e-09
-5.32655e-08
4.49766e-09
-5.51727e-08
4.45353e-09
-5.70579e-08
4.40214e-09
-5.89181e-08
4.3437e-09
-6.07504e-08
4.27837e-09
-6.25518e-08
4.20636e-09
-6.43196e-08
4.12786e-09
-6.60511e-08
4.04306e-09
-6.77437e-08
3.95215e-09
-6.93948e-08
3.85532e-09
-7.1002e-08
3.75279e-09
-7.25629e-08
3.64473e-09
-7.40753e-08
3.53137e-09
-7.55369e-08
3.41288e-09
-7.69456e-08
3.28948e-09
-7.82995e-08
3.16137e-09
-7.95966e-08
3.02874e-09
-8.08349e-08
2.89181e-09
-8.20129e-08
2.75078e-09
-8.31288e-08
2.60586e-09
-8.41809e-08
2.45725e-09
-8.5168e-08
2.30516e-09
-8.60884e-08
2.14981e-09
-8.6941e-08
1.9914e-09
-8.77244e-08
1.83016e-09
-8.84377e-08
1.66628e-09
-8.90797e-08
1.5e-09
-8.96495e-08
1.33153e-09
-9.01463e-08
1.16108e-09
-9.05693e-08
9.88887e-10
-9.09179e-08
8.15166e-10
-9.11915e-08
6.40144e-10
-9.13896e-08
4.64048e-10
-9.1512e-08
2.87108e-10
-9.15582e-08
1.09554e-10
-9.15283e-08
-6.83804e-11
-9.14221e-08
-2.4646e-10
-9.12396e-08
-4.24448e-10
-9.09811e-08
-6.02106e-10
-9.06467e-08
-7.79192e-10
-9.02369e-08
-9.55463e-10
-8.9752e-08
-1.13068e-09
-8.91927e-08
-1.30458e-09
-8.85595e-08
-1.47694e-09
-8.78534e-08
-1.64749e-09
-8.70752e-08
-1.81599e-09
-8.62258e-08
-1.98219e-09
-8.53064e-08
-2.14583e-09
-8.43181e-08
-2.30665e-09
-8.32624e-08
-2.46441e-09
-8.21406e-08
-2.61884e-09
-8.09543e-08
-2.7697e-09
-7.97051e-08
-2.91672e-09
-7.83947e-08
-3.05964e-09
-7.70251e-08
-3.19823e-09
-7.55982e-08
-3.33221e-09
-7.41161e-08
-3.46133e-09
-7.2581e-08
-3.58535e-09
-7.09952e-08
-3.70401e-09
-6.9361e-08
-3.81706e-09
-6.7681e-08
-3.92425e-09
-6.59579e-08
-4.02535e-09
-6.41942e-08
-4.12011e-09
-6.23929e-08
-4.20829e-09
-6.05568e-08
-4.28966e-09
-5.86889e-08
-4.36399e-09
-5.67924e-08
-4.43106e-09
-5.48704e-08
-4.49065e-09
-5.29263e-08
-4.54254e-09
-5.09633e-08
-4.58654e-09
-4.8985e-08
-4.62243e-09
-4.69949e-08
-4.65003e-09
-4.49966e-08
-4.66916e-09
-4.29938e-08
-4.67964e-09
-4.09902e-08
-4.6813e-09
-3.89896e-08
-4.67399e-09
-3.6996e-08
-4.65756e-09
-3.50132e-08
-4.63189e-09
-3.30452e-08
-4.59685e-09
-3.1096e-08
-4.55234e-09
-2.91698e-08
-4.49826e-09
-2.72705e-08
-4.43453e-09
-2.54023e-08
-4.36111e-09
-2.35693e-08
-4.27795e-09
-2.17756e-08
-4.18502e-09
-2.00252e-08
-4.08235e-09
-1.83224e-08
-3.96994e-09
-1.66711e-08
-3.84786e-09
-1.50753e-08
-3.7162e-09
-1.35391e-08
-3.57507e-09
-1.20662e-08
-3.42463e-09
-1.06605e-08
-3.2651e-09
-9.32554e-09
-3.09672e-09
-8.06491e-09
-2.91982e-09
-6.8819e-09
-2.73477e-09
-5.77962e-09
-2.54204e-09
-4.76093e-09
-2.34219e-09
-3.82839e-09
-2.13589e-09
-2.98419e-09
-1.92396e-09
-2.23008e-09
-1.70736e-09
-1.56731e-09
-1.48729e-09
-9.96514e-10
-1.26516e-09
-5.17589e-10
-1.0427e-09
-1.29553e-10
-8.22023e-10
1.69631e-10
-6.05697e-10
3.8326e-10
-3.96887e-10
5.16141e-10
-1.99486e-10
5.74882e-10
-1.82924e-11
5.68206e-10
1.40786e-10
5.07285e-10
2.70523e-10
4.0611e-10
3.62196e-10
2.81837e-10
4.05531e-10
1.55087e-10
3.88967e-10
5.05609e-11
3.00561e-10
1.29864e-10
4.74986e-11
-1.78382e-10
1.40224e-10
-3.89006e-10
2.42694e-10
-4.77801e-10
3.27554e-10
-4.65383e-10
3.72434e-10
-3.70037e-10
3.58961e-10
-2.0819e-10
2.72221e-10
5.88155e-12
1.00318e-10
2.60088e-10
-1.66012e-10
5.4435e-10
-5.33738e-10
8.50345e-10
-1.00785e-09
1.17124e-09
-1.59166e-09
1.50144e-09
-2.28704e-09
1.83637e-09
-3.09463e-09
2.17231e-09
-4.01407e-09
2.5062e-09
-5.04415e-09
2.83552e-09
-6.18295e-09
3.15824e-09
-7.42794e-09
3.47266e-09
-8.77609e-09
3.77741e-09
-1.0224e-08
4.07138e-09
-1.17678e-08
4.35364e-09
-1.34035e-08
4.62347e-09
-1.51268e-08
4.88027e-09
-1.69333e-08
5.12358e-09
-1.88183e-08
5.35303e-09
-2.0777e-08
5.56836e-09
-2.28047e-08
5.76936e-09
-2.48964e-08
5.95591e-09
-2.70472e-08
6.12794e-09
-2.92523e-08
6.28541e-09
-3.15065e-08
6.42834e-09
-3.38049e-08
6.55679e-09
-3.61427e-08
6.67085e-09
-3.85149e-08
6.77061e-09
-4.09165e-08
6.85622e-09
-4.33429e-08
6.92784e-09
-4.57892e-08
6.98564e-09
-4.82507e-08
7.02981e-09
-5.07227e-08
7.06056e-09
-5.32007e-08
7.07811e-09
-5.56801e-08
7.08269e-09
-5.81566e-08
7.07454e-09
-6.06258e-08
7.05391e-09
-6.30834e-08
7.02105e-09
-6.55253e-08
6.97623e-09
-6.79474e-08
6.91972e-09
-7.03456e-08
6.85178e-09
-7.27162e-08
6.77271e-09
-7.50553e-08
6.68277e-09
-7.73591e-08
6.58226e-09
-7.96243e-08
6.47147e-09
-8.18471e-08
6.35069e-09
-8.40242e-08
6.22021e-09
-8.61524e-08
6.08034e-09
-8.82285e-08
5.93136e-09
-9.02493e-08
5.77359e-09
-9.22119e-08
5.60733e-09
-9.41134e-08
5.43288e-09
-9.59511e-08
5.25056e-09
-9.77222e-08
5.06066e-09
-9.94244e-08
4.86351e-09
-1.01055e-07
4.65941e-09
-1.02612e-07
4.44868e-09
-1.04093e-07
4.23164e-09
-1.05496e-07
4.0086e-09
-1.06818e-07
3.77989e-09
-1.08059e-07
3.54582e-09
-1.09216e-07
3.30673e-09
-1.10287e-07
3.06294e-09
-1.11272e-07
2.81477e-09
-1.12168e-07
2.56257e-09
-1.12975e-07
2.30666e-09
-1.13691e-07
2.04738e-09
-1.14315e-07
1.78508e-09
-1.14846e-07
1.52008e-09
-1.15283e-07
1.25275e-09
-1.15627e-07
9.83414e-10
-1.15875e-07
7.12438e-10
-1.16028e-07
4.40171e-10
-1.16086e-07
1.6697e-10
-1.16047e-07
-1.06806e-10
-1.15913e-07
-3.80795e-10
-1.15683e-07
-6.5463e-10
-1.15357e-07
-9.27945e-10
-1.14936e-07
-1.20037e-09
-1.1442e-07
-1.47152e-09
-1.13809e-07
-1.74104e-09
-1.13105e-07
-2.00853e-09
-1.12309e-07
-2.27362e-09
-1.1142e-07
-2.53592e-09
-1.10441e-07
-2.79505e-09
-1.09373e-07
-3.05062e-09
-1.08216e-07
-3.30224e-09
-1.06973e-07
-3.54952e-09
-1.05646e-07
-3.79207e-09
-1.04235e-07
-4.02949e-09
-1.02743e-07
-4.2614e-09
-1.01173e-07
-4.4874e-09
-9.95252e-08
-4.70709e-09
-9.78034e-08
-4.92009e-09
-9.60096e-08
-5.126e-09
-9.41465e-08
-5.32444e-09
-9.22168e-08
-5.51502e-09
-9.02234e-08
-5.69735e-09
-8.81694e-08
-5.87106e-09
-8.60579e-08
-6.03577e-09
-8.38922e-08
-6.1911e-09
-8.16756e-08
-6.33668e-09
-7.94117e-08
-6.47216e-09
-7.71042e-08
-6.59718e-09
-7.47568e-08
-6.71139e-09
-7.23734e-08
-6.81445e-09
-6.99581e-08
-6.90603e-09
-6.75148e-08
-6.9858e-09
-6.50479e-08
-7.05345e-09
-6.25616e-08
-7.10869e-09
-6.00605e-08
-7.15121e-09
-5.75489e-08
-7.18075e-09
-5.50315e-08
-7.19704e-09
-5.25129e-08
-7.19983e-09
-4.9998e-08
-7.18889e-09
-4.74916e-08
-7.16402e-09
-4.49985e-08
-7.125e-09
-4.25237e-08
-7.07167e-09
-4.00721e-08
-7.00387e-09
-3.76489e-08
-6.92147e-09
-3.52591e-08
-6.82437e-09
-3.29077e-08
-6.71249e-09
-3.05999e-08
-6.58577e-09
-2.83407e-08
-6.44422e-09
-2.61352e-08
-6.28784e-09
-2.39884e-08
-6.11669e-09
-2.19054e-08
-5.93089e-09
-1.9891e-08
-5.73059e-09
-1.79501e-08
-5.51598e-09
-1.60874e-08
-5.28735e-09
-1.43075e-08
-5.04503e-09
-1.26147e-08
-4.78945e-09
-1.10135e-08
-4.5211e-09
-9.5076e-09
-4.24063e-09
-8.10088e-09
-3.94876e-09
-6.79668e-09
-3.64639e-09
-5.59798e-09
-3.33458e-09
-4.50732e-09
-3.01462e-09
-3.52668e-09
-2.688e-09
-2.65742e-09
-2.35656e-09
-1.90012e-09
-2.02245e-09
-1.25451e-09
-1.68831e-09
-7.19261e-10
-1.35727e-09
-2.91819e-10
-1.03314e-09
3.17941e-11
-7.20506e-10
2.57235e-10
-4.24937e-10
3.92108e-10
-1.5317e-10
4.46252e-10
8.66498e-11
4.32038e-10
2.84747e-10
3.64719e-10
4.29515e-10
2.62827e-10
5.07419e-10
1.48698e-10
5.03097e-10
4.9435e-11
3.99822e-10
1.79305e-10
4.03862e-11
-2.18777e-10
1.14208e-10
-4.62803e-10
1.85698e-10
-5.49272e-10
2.26692e-10
-5.06384e-10
2.14165e-10
-3.5752e-10
1.29152e-10
-1.23185e-10
-4.38523e-11
1.78881e-10
-3.17349e-10
5.33586e-10
-7.012e-10
9.28206e-10
-1.20293e-09
1.35208e-09
-1.82804e-09
1.79634e-09
-2.58021e-09
2.25361e-09
-3.46162e-09
2.71778e-09
-4.4731e-09
3.18379e-09
-5.61436e-09
3.64745e-09
-6.88412e-09
4.10529e-09
-8.28031e-09
4.55443e-09
-9.80014e-09
4.99249e-09
-1.14402e-08
5.41752e-09
-1.31968e-08
5.82789e-09
-1.50654e-08
6.22228e-09
-1.70415e-08
6.59961e-09
-1.91203e-08
6.95899e-09
-2.12964e-08
7.29974e-09
-2.35647e-08
7.62129e-09
-2.59195e-08
7.92323e-09
-2.83554e-08
8.20523e-09
-3.08666e-08
8.46708e-09
-3.34473e-08
8.70865e-09
-3.60917e-08
8.92986e-09
-3.87941e-08
9.13072e-09
-4.15486e-08
9.31126e-09
-4.43493e-08
9.47159e-09
-4.71906e-08
9.61185e-09
-5.00665e-08
9.7322e-09
-5.29715e-08
9.83284e-09
-5.58999e-08
9.91402e-09
-5.88461e-08
9.97599e-09
-6.18046e-08
1.0019e-08
-6.47699e-08
1.00434e-08
-6.77367e-08
1.00495e-08
-7.06998e-08
1.00376e-08
-7.36539e-08
1.0008e-08
-7.6594e-08
9.96119e-09
-7.95152e-08
9.89742e-09
-8.24126e-08
9.81708e-09
-8.52814e-08
9.72058e-09
-8.8117e-08
9.60829e-09
-9.09148e-08
9.48062e-09
-9.36705e-08
9.33796e-09
-9.63798e-08
9.18072e-09
-9.90384e-08
9.00932e-09
-1.01642e-07
8.82417e-09
-1.04188e-07
8.62569e-09
-1.06671e-07
8.4143e-09
-1.09087e-07
8.19042e-09
-1.11435e-07
7.9545e-09
-1.13709e-07
7.70696e-09
-1.15906e-07
7.44824e-09
-1.18025e-07
7.17878e-09
-1.2006e-07
6.89901e-09
-1.2201e-07
6.60939e-09
-1.23872e-07
6.31035e-09
-1.25642e-07
6.00236e-09
-1.2732e-07
5.68585e-09
-1.28901e-07
5.36129e-09
-1.30384e-07
5.02914e-09
-1.31768e-07
4.68985e-09
-1.33048e-07
4.3439e-09
-1.34225e-07
3.99174e-09
-1.35297e-07
3.63386e-09
-1.36261e-07
3.27072e-09
-1.37116e-07
2.90281e-09
-1.37862e-07
2.53061e-09
-1.38496e-07
2.1546e-09
-1.39019e-07
1.77528e-09
-1.39429e-07
1.39313e-09
-1.39725e-07
1.00867e-09
-1.39907e-07
6.22382e-10
-1.39975e-07
2.34785e-10
-1.39928e-07
-1.53615e-10
-1.39766e-07
-5.42301e-10
-1.3949e-07
-9.30755e-10
-1.391e-07
-1.31845e-09
-1.38595e-07
-1.70487e-09
-1.37977e-07
-2.08947e-09
-1.37247e-07
-2.47173e-09
-1.36404e-07
-2.8511e-09
-1.35451e-07
-3.22704e-09
-1.34388e-07
-3.59902e-09
-1.33216e-07
-3.96647e-09
-1.31938e-07
-4.32886e-09
-1.30555e-07
-4.68563e-09
-1.29068e-07
-5.03622e-09
-1.2748e-07
-5.38009e-09
-1.25793e-07
-5.71668e-09
-1.24009e-07
-6.04543e-09
-1.2213e-07
-6.36578e-09
-1.2016e-07
-6.67718e-09
-1.18101e-07
-6.97908e-09
-1.15956e-07
-7.27092e-09
-1.13728e-07
-7.55216e-09
-1.11421e-07
-7.82225e-09
-1.09038e-07
-8.08065e-09
-1.06582e-07
-8.32681e-09
-1.04058e-07
-8.56022e-09
-1.01469e-07
-8.78033e-09
-9.88186e-08
-8.98665e-09
-9.61121e-08
-9.17864e-09
-9.33534e-08
-9.35583e-09
-9.05471e-08
-9.51771e-09
-8.76977e-08
-9.66382e-09
-8.48101e-08
-9.79367e-09
-8.18891e-08
-9.90683e-09
-7.89397e-08
-1.00029e-08
-7.5967e-08
-1.00813e-08
-7.29764e-08
-1.01418e-08
-6.99732e-08
-1.0184e-08
-6.69628e-08
-1.02074e-08
-6.39508e-08
-1.02118e-08
-6.09428e-08
-1.01969e-08
-5.79446e-08
-1.01622e-08
-5.4962e-08
-1.01077e-08
-5.20007e-08
-1.00329e-08
-4.90667e-08
-9.93783e-09
-4.6166e-08
-9.82218e-09
-4.33045e-08
-9.68586e-09
-4.04882e-08
-9.52877e-09
-3.77232e-08
-9.35085e-09
-3.50153e-08
-9.15212e-09
-3.23705e-08
-8.93261e-09
-2.97947e-08
-8.69244e-09
-2.72939e-08
-8.43177e-09
-2.48736e-08
-8.15085e-09
-2.25396e-08
-7.85001e-09
-2.02973e-08
-7.52965e-09
-1.8152e-08
-7.19028e-09
-1.61089e-08
-6.83254e-09
-1.41729e-08
-6.45718e-09
-1.23484e-08
-6.06511e-09
-1.06397e-08
-5.65743e-09
-9.0507e-09
-5.23541e-09
-7.58467e-09
-4.80061e-09
-6.24445e-09
-4.35483e-09
-5.03222e-09
-3.90024e-09
-3.94939e-09
-3.43939e-09
-2.99654e-09
-2.97531e-09
-2.17323e-09
-2.51162e-09
-1.47789e-09
-2.05262e-09
-9.0758e-10
-1.60345e-09
-4.57839e-10
-1.17024e-09
-1.22443e-10
-7.60325e-10
1.0684e-10
-3.82452e-10
2.40519e-10
-4.70274e-11
2.91652e-10
2.33617e-10
2.76189e-10
4.44987e-10
2.13372e-10
5.70227e-10
1.26399e-10
5.90067e-10
4.34048e-11
4.82816e-10
2.22714e-10
2.99339e-11
-2.48724e-10
7.65394e-11
-5.09404e-10
1.05532e-10
-5.78249e-10
8.91682e-11
-4.90024e-10
4.54976e-12
-2.72912e-10
-1.6729e-10
4.86452e-11
-4.41959e-10
4.53549e-10
-8.3214e-10
9.23774e-10
-1.34793e-09
1.444e-09
-1.9971e-09
2.00126e-09
-2.7854e-09
2.58464e-09
-3.71673e-09
3.18494e-09
-4.79341e-09
3.79446e-09
-6.01638e-09
4.40676e-09
-7.38535e-09
5.01642e-09
-8.89899e-09
5.61893e-09
-1.05551e-08
6.2105e-09
-1.23506e-08
6.78799e-09
-1.42818e-08
7.34876e-09
-1.63446e-08
7.89064e-09
-1.85341e-08
8.41182e-09
-2.08453e-08
8.91081e-09
-2.32727e-08
9.38639e-09
-2.58105e-08
9.83758e-09
-2.84529e-08
1.02636e-08
-3.11935e-08
1.06639e-08
-3.40261e-08
1.10379e-08
-3.69443e-08
1.13853e-08
-3.99416e-08
1.17059e-08
-4.30113e-08
1.19996e-08
-4.61469e-08
1.22663e-08
-4.93417e-08
1.25061e-08
-5.25892e-08
1.27191e-08
-5.58827e-08
1.29054e-08
-5.92157e-08
1.30652e-08
-6.25816e-08
1.31988e-08
-6.5974e-08
1.33064e-08
-6.93864e-08
1.33885e-08
-7.28127e-08
1.34452e-08
-7.62464e-08
1.34772e-08
-7.96815e-08
1.34846e-08
-8.3112e-08
1.34681e-08
-8.65319e-08
1.34279e-08
-8.99353e-08
1.33646e-08
-9.33166e-08
1.32787e-08
-9.66701e-08
1.31706e-08
-9.99904e-08
1.30409e-08
-1.03272e-07
1.289e-08
-1.0651e-07
1.27186e-08
-1.09699e-07
1.2527e-08
-1.12834e-07
1.23159e-08
-1.15911e-07
1.20859e-08
-1.18924e-07
1.18374e-08
-1.21869e-07
1.1571e-08
-1.24742e-07
1.12873e-08
-1.27539e-07
1.09869e-08
-1.30255e-07
1.06703e-08
-1.32886e-07
1.03381e-08
-1.35428e-07
9.99093e-09
-1.37879e-07
9.62935e-09
-1.40234e-07
9.25394e-09
-1.4249e-07
8.8653e-09
-1.44644e-07
8.46403e-09
-1.46692e-07
8.05075e-09
-1.48632e-07
7.62604e-09
-1.50461e-07
7.19053e-09
-1.52177e-07
6.74484e-09
-1.53777e-07
6.28958e-09
-1.55258e-07
5.82537e-09
-1.56619e-07
5.35285e-09
-1.57858e-07
4.87265e-09
-1.58973e-07
4.38541e-09
-1.59962e-07
3.89177e-09
-1.60824e-07
3.39239e-09
-1.61557e-07
2.8879e-09
-1.62161e-07
2.37899e-09
-1.62634e-07
1.8663e-09
-1.62976e-07
1.35052e-09
-1.63186e-07
8.32305e-10
-1.63263e-07
3.12348e-10
-1.63208e-07
-2.08666e-10
-1.6302e-07
-7.30048e-10
-1.627e-07
-1.2511e-09
-1.62247e-07
-1.77112e-09
-1.61663e-07
-2.28939e-09
-1.60947e-07
-2.80522e-09
-1.60101e-07
-3.31787e-09
-1.59125e-07
-3.82663e-09
-1.58022e-07
-4.33078e-09
-1.56791e-07
-4.82958e-09
-1.55435e-07
-5.3223e-09
-1.53956e-07
-5.8082e-09
-1.52355e-07
-6.28655e-09
-1.50635e-07
-6.75659e-09
-1.48797e-07
-7.2176e-09
-1.46845e-07
-7.66883e-09
-1.44781e-07
-8.10953e-09
-1.42608e-07
-8.53896e-09
-1.40328e-07
-8.95638e-09
-1.37946e-07
-9.36105e-09
-1.35465e-07
-9.75222e-09
-1.32888e-07
-1.01292e-08
-1.30219e-07
-1.04912e-08
-1.27462e-07
-1.08375e-08
-1.24622e-07
-1.11674e-08
-1.21702e-07
-1.14803e-08
-1.18707e-07
-1.17753e-08
-1.15642e-07
-1.20518e-08
-1.12511e-07
-1.23092e-08
-1.0932e-07
-1.25468e-08
-1.06074e-07
-1.27638e-08
-1.02778e-07
-1.29598e-08
-9.94376e-08
-1.3134e-08
-9.60585e-08
-1.32859e-08
-9.26465e-08
-1.34149e-08
-8.92074e-08
-1.35204e-08
-8.57473e-08
-1.36019e-08
-8.22723e-08
-1.36589e-08
-7.87888e-08
-1.3691e-08
-7.5303e-08
-1.36976e-08
-7.18215e-08
-1.36784e-08
-6.83507e-08
-1.36329e-08
-6.48975e-08
-1.35609e-08
-6.14683e-08
-1.34621e-08
-5.80701e-08
-1.33361e-08
-5.47095e-08
-1.31827e-08
-5.13935e-08
-1.30019e-08
-4.81287e-08
-1.27935e-08
-4.49222e-08
-1.25574e-08
-4.17806e-08
-1.22937e-08
-3.87107e-08
-1.20025e-08
-3.57192e-08
-1.16839e-08
-3.28128e-08
-1.13382e-08
-2.99979e-08
-1.09658e-08
-2.72808e-08
-1.05671e-08
-2.46678e-08
-1.01426e-08
-2.21649e-08
-9.69325e-09
-1.97777e-08
-9.21976e-09
-1.75116e-08
-8.72322e-09
-1.53718e-08
-8.20489e-09
-1.3363e-08
-7.66626e-09
-1.14893e-08
-7.10909e-09
-9.7545e-09
-6.53545e-09
-8.16156e-09
-5.94777e-09
-6.71285e-09
-5.34894e-09
-5.4099e-09
-4.74234e-09
-4.25327e-09
-4.13193e-09
-3.24245e-09
-3.52243e-09
-2.37569e-09
-2.91938e-09
-1.64983e-09
-2.3293e-09
-1.06014e-09
-1.75994e-09
-6.0006e-10
-1.22041e-09
-2.61034e-10
-7.21483e-10
-3.22487e-11
-2.75817e-10
9.96322e-11
1.01737e-10
1.5078e-10
3.93853e-10
1.4059e-10
5.80413e-10
9.23278e-11
6.38328e-10
3.3967e-11
5.41179e-10
2.5668e-10
1.72318e-11
-2.65957e-10
3.05431e-11
-5.22728e-10
8.19727e-12
-5.55908e-10
-7.61923e-11
-4.05638e-10
-2.44725e-10
-1.04383e-10
-5.15861e-10
3.19778e-10
-9.04894e-10
8.42583e-10
-1.42433e-09
1.44322e-09
-2.08419e-09
2.10386e-09
-2.89224e-09
2.80932e-09
-3.85424e-09
3.54663e-09
-4.97414e-09
4.30483e-09
-6.25428e-09
5.0746e-09
-7.69558e-09
5.84806e-09
-9.29769e-09
6.61854e-09
-1.10592e-08
7.38043e-09
-1.29777e-08
8.12899e-09
-1.50499e-08
8.86022e-09
-1.72719e-08
9.57078e-09
-1.96392e-08
1.02579e-08
-2.21465e-08
1.09191e-08
-2.47883e-08
1.15526e-08
-2.75587e-08
1.21568e-08
-3.04513e-08
1.27302e-08
-3.34597e-08
1.3272e-08
-3.6577e-08
1.37812e-08
-3.97963e-08
1.42572e-08
-4.31105e-08
1.46995e-08
-4.65125e-08
1.51078e-08
-4.99948e-08
1.54819e-08
-5.35502e-08
1.58217e-08
-5.71714e-08
1.61273e-08
-6.08509e-08
1.63986e-08
-6.45815e-08
1.66359e-08
-6.83557e-08
1.68394e-08
-7.21664e-08
1.70094e-08
-7.60062e-08
1.71463e-08
-7.98681e-08
1.72503e-08
-8.3745e-08
1.73221e-08
-8.76298e-08
1.7362e-08
-9.15157e-08
1.73706e-08
-9.5396e-08
1.73483e-08
-9.92638e-08
1.72958e-08
-1.03113e-07
1.72136e-08
-1.06936e-07
1.71023e-08
-1.10728e-07
1.69626e-08
-1.14483e-07
1.67951e-08
-1.18193e-07
1.66004e-08
-1.21854e-07
1.63793e-08