/*--------------------------------*- C++ -*----------------------------------*\
  =========                 |
  \\      /  F ield         | OpenFOAM: The Open Source CFD Toolbox
   \\    /   O peration     | Website:  https://openfoam.org
    \\  /    A nd           | Version:  7
     \\/     M anipulation  |
\*---------------------------------------------------------------------------*/
FoamFile
{
    version     2.0;
    format      ascii;
    class       volVectorField;
    location    "0.3875";
    object      U;
}
// * * * * * * * * * * * * * * * * * * * * * * * * * * * * * * * * * * * * * //

dimensions      [0 1 -1 0 0 0 0];

internalField   nonuniform List<vector> 
25600
(
(1.73431e-07 -2.10938e-07 0)
(2.82958e-06 -1.79585e-06 0)
(9.07231e-06 -2.83445e-06 0)
(1.69252e-05 -3.20801e-06 0)
(2.48838e-05 -3.12378e-06 0)
(3.20003e-05 -2.74576e-06 0)
(3.76234e-05 -2.18122e-06 0)
(4.13018e-05 -1.5011e-06 0)
(4.27347e-05 -7.5132e-07 0)
(4.173e-05 3.76023e-08 0)
(3.81706e-05 8.45128e-07 0)
(3.19945e-05 1.65702e-06 0)
(2.318e-05 2.46313e-06 0)
(1.17357e-05 3.25639e-06 0)
(-2.30555e-06 4.03155e-06 0)
(-1.88922e-05 4.78449e-06 0)
(-3.79587e-05 5.51224e-06 0)
(-5.94287e-05 6.21262e-06 0)
(-8.32177e-05 6.88404e-06 0)
(-0.000109234 7.52523e-06 0)
(-0.000137382 8.13533e-06 0)
(-0.000167561 8.71378e-06 0)
(-0.000199668 9.26018e-06 0)
(-0.000233596 9.7743e-06 0)
(-0.00026924 1.02561e-05 0)
(-0.000306492 1.07057e-05 0)
(-0.000345244 1.11232e-05 0)
(-0.000385388 1.15087e-05 0)
(-0.000426815 1.18626e-05 0)
(-0.00046942 1.21851e-05 0)
(-0.000513094 1.24766e-05 0)
(-0.000557733 1.27376e-05 0)
(-0.000603231 1.29685e-05 0)
(-0.000649486 1.31699e-05 0)
(-0.000696395 1.33422e-05 0)
(-0.000743859 1.34859e-05 0)
(-0.000791779 1.36015e-05 0)
(-0.000840058 1.36896e-05 0)
(-0.0008886 1.37508e-05 0)
(-0.000937312 1.37855e-05 0)
(-0.000986103 1.37945e-05 0)
(-0.00103488 1.37782e-05 0)
(-0.00108356 1.37373e-05 0)
(-0.00113206 1.36722e-05 0)
(-0.00118028 1.35837e-05 0)
(-0.00122816 1.34724e-05 0)
(-0.0012756 1.33387e-05 0)
(-0.00132253 1.31833e-05 0)
(-0.00136888 1.30069e-05 0)
(-0.00141458 1.28099e-05 0)
(-0.00145954 1.2593e-05 0)
(-0.0015037 1.23569e-05 0)
(-0.00154699 1.2102e-05 0)
(-0.00158935 1.1829e-05 0)
(-0.00163072 1.15386e-05 0)
(-0.00167103 1.12311e-05 0)
(-0.00171022 1.09074e-05 0)
(-0.00174824 1.05678e-05 0)
(-0.00178503 1.02132e-05 0)
(-0.00182054 9.8441e-06 0)
(-0.00185471 9.46107e-06 0)
(-0.00188751 9.06472e-06 0)
(-0.00191888 8.65561e-06 0)
(-0.00194878 8.23435e-06 0)
(-0.00197716 7.80155e-06 0)
(-0.00200399 7.35784e-06 0)
(-0.00202924 6.90386e-06 0)
(-0.00205285 6.44021e-06 0)
(-0.0020748 5.9675e-06 0)
(-0.00209507 5.48633e-06 0)
(-0.00211361 4.99731e-06 0)
(-0.00213041 4.5011e-06 0)
(-0.00214544 3.99833e-06 0)
(-0.00215867 3.48965e-06 0)
(-0.0021701 2.97569e-06 0)
(-0.00217969 2.45711e-06 0)
(-0.00218743 1.93454e-06 0)
(-0.00219332 1.40866e-06 0)
(-0.00219734 8.80151e-07 0)
(-0.00219949 3.49695e-07 0)
(-0.00219975 -1.82033e-07 0)
(-0.00219813 -7.14355e-07 0)
(-0.00219462 -1.24658e-06 0)
(-0.00218923 -1.778e-06 0)
(-0.00218196 -2.30791e-06 0)
(-0.00217282 -2.83557e-06 0)
(-0.00216181 -3.36027e-06 0)
(-0.00214896 -3.88128e-06 0)
(-0.00213426 -4.39786e-06 0)
(-0.00211775 -4.90928e-06 0)
(-0.00209945 -5.4148e-06 0)
(-0.00207936 -5.91367e-06 0)
(-0.00205752 -6.40511e-06 0)
(-0.00203397 -6.88836e-06 0)
(-0.00200872 -7.36265e-06 0)
(-0.00198181 -7.82722e-06 0)
(-0.00195328 -8.28129e-06 0)
(-0.00192316 -8.7241e-06 0)
(-0.0018915 -9.15487e-06 0)
(-0.00185835 -9.57282e-06 0)
(-0.00182374 -9.97716e-06 0)
(-0.00178774 -1.03671e-05 0)
(-0.00175038 -1.07419e-05 0)
(-0.00171174 -1.11007e-05 0)
(-0.00167185 -1.14429e-05 0)
(-0.0016308 -1.17676e-05 0)
(-0.00158863 -1.2074e-05 0)
(-0.00154541 -1.23615e-05 0)
(-0.00150122 -1.26292e-05 0)
(-0.00145613 -1.28765e-05 0)
(-0.0014102 -1.31026e-05 0)
(-0.00136352 -1.33068e-05 0)
(-0.00131616 -1.34884e-05 0)
(-0.0012682 -1.36467e-05 0)
(-0.00121973 -1.3781e-05 0)
(-0.00117083 -1.38906e-05 0)
(-0.00112159 -1.39751e-05 0)
(-0.0010721 -1.40336e-05 0)
(-0.00102245 -1.40656e-05 0)
(-0.000972742 -1.40706e-05 0)
(-0.000923062 -1.40479e-05 0)
(-0.000873511 -1.39971e-05 0)
(-0.000824188 -1.39176e-05 0)
(-0.000775194 -1.3809e-05 0)
(-0.000726632 -1.36708e-05 0)
(-0.000678604 -1.35027e-05 0)
(-0.000631215 -1.33042e-05 0)
(-0.000584572 -1.30749e-05 0)
(-0.00053878 -1.28147e-05 0)
(-0.000493948 -1.25232e-05 0)
(-0.000450182 -1.22003e-05 0)
(-0.000407592 -1.18458e-05 0)
(-0.000366285 -1.14594e-05 0)
(-0.000326369 -1.10413e-05 0)
(-0.000287951 -1.05915e-05 0)
(-0.00025114 -1.011e-05 0)
(-0.000216039 -9.5972e-06 0)
(-0.000182753 -9.05326e-06 0)
(-0.000151384 -8.47869e-06 0)
(-0.000122031 -7.87414e-06 0)
(-9.47902e-05 -7.24034e-06 0)
(-6.97531e-05 -6.57819e-06 0)
(-4.70061e-05 -5.88893e-06 0)
(-2.66291e-05 -5.17422e-06 0)
(-8.6943e-06 -4.43626e-06 0)
(6.73564e-06 -3.6777e-06 0)
(1.96104e-05 -2.90189e-06 0)
(2.98954e-05 -2.11315e-06 0)
(3.75752e-05 -1.31726e-06 0)
(4.26592e-05 -5.21908e-07 0)
(4.51888e-05 2.62335e-07 0)
(4.5247e-05 1.02078e-06 0)
(4.2972e-05 1.73269e-06 0)
(3.85784e-05 2.36765e-06 0)
(3.23864e-05 2.87933e-06 0)
(2.48644e-05 3.19713e-06 0)
(1.66785e-05 3.21608e-06 0)
(8.78011e-06 2.78013e-06 0)
(2.64404e-06 1.69703e-06 0)
(1.22248e-07 1.22139e-07 0)
(1.7756e-06 -2.88425e-06 0)
(9.37714e-06 -9.41532e-06 0)
(2.31338e-05 -1.34197e-05 0)
(3.93765e-05 -1.47314e-05 0)
(5.52578e-05 -1.3967e-05 0)
(6.87873e-05 -1.16984e-05 0)
(7.84284e-05 -8.36727e-06 0)
(8.30224e-05 -4.30392e-06 0)
(8.17353e-05 2.52396e-07 0)
(7.39893e-05 5.12726e-06 0)
(5.9402e-05 1.01922e-05 0)
(3.77413e-05 1.53511e-05 0)
(8.89167e-06 2.0531e-05 0)
(-2.71716e-05 2.56767e-05 0)
(-7.04011e-05 3.07459e-05 0)
(-0.000120692 3.57056e-05 0)
(-0.000177892 4.05302e-05 0)
(-0.000241818 4.51995e-05 0)
(-0.000312253 4.96979e-05 0)
(-0.000388963 5.40131e-05 0)
(-0.000471691 5.81357e-05 0)
(-0.000560169 6.20586e-05 0)
(-0.000654117 6.57764e-05 0)
(-0.000753246 6.92853e-05 0)
(-0.000857263 7.25828e-05 0)
(-0.000965868 7.56674e-05 0)
(-0.00107876 7.85383e-05 0)
(-0.00119564 8.11956e-05 0)
(-0.0013162 8.36397e-05 0)
(-0.00144013 8.58718e-05 0)
(-0.00156714 8.78934e-05 0)
(-0.00169693 8.97068e-05 0)
(-0.00182919 9.13143e-05 0)
(-0.00196363 9.27183e-05 0)
(-0.00209996 9.39218e-05 0)
(-0.0022379 9.49274e-05 0)
(-0.00237715 9.57385e-05 0)
(-0.00251745 9.63584e-05 0)
(-0.00265851 9.67906e-05 0)
(-0.00280006 9.70388e-05 0)
(-0.00294185 9.71064e-05 0)
(-0.0030836 9.69974e-05 0)
(-0.00322507 9.67154e-05 0)
(-0.00336601 9.62644e-05 0)
(-0.00350617 9.56484e-05 0)
(-0.00364532 9.48712e-05 0)
(-0.00378322 9.3937e-05 0)
(-0.00391964 9.28497e-05 0)
(-0.00405438 9.16134e-05 0)
(-0.0041872 9.02323e-05 0)
(-0.00431791 8.87105e-05 0)
(-0.00444629 8.7052e-05 0)
(-0.00457216 8.52611e-05 0)
(-0.00469532 8.33418e-05 0)
(-0.00481559 8.12984e-05 0)
(-0.00493279 7.9135e-05 0)
(-0.00504674 7.68558e-05 0)
(-0.00515728 7.44651e-05 0)
(-0.00526425 7.1967e-05 0)
(-0.0053675 6.93659e-05 0)
(-0.00546687 6.66661e-05 0)
(-0.00556222 6.38716e-05 0)
(-0.00565343 6.09868e-05 0)
(-0.00574036 5.80158e-05 0)
(-0.00582288 5.49632e-05 0)
(-0.00590089 5.18333e-05 0)
(-0.00597426 4.86303e-05 0)
(-0.00604291 4.53589e-05 0)
(-0.00610672 4.20232e-05 0)
(-0.00616561 3.86277e-05 0)
(-0.0062195 3.5177e-05 0)
(-0.00626831 3.16754e-05 0)
(-0.00631196 2.81276e-05 0)
(-0.0063504 2.45381e-05 0)
(-0.00638356 2.09116e-05 0)
(-0.00641139 1.72527e-05 0)
(-0.00643386 1.3566e-05 0)
(-0.00645092 9.85631e-06 0)
(-0.00646255 6.12847e-06 0)
(-0.00646871 2.38727e-06 0)
(-0.0064694 -1.36244e-06 0)
(-0.00646461 -5.11577e-06 0)
(-0.00645434 -8.86777e-06 0)
(-0.00643859 -1.26134e-05 0)
(-0.00641737 -1.63477e-05 0)
(-0.00639071 -2.00655e-05 0)
(-0.00635863 -2.37617e-05 0)
(-0.00632118 -2.74312e-05 0)
(-0.00627838 -3.10686e-05 0)
(-0.00623031 -3.46688e-05 0)
(-0.00617701 -3.82266e-05 0)
(-0.00611854 -4.17365e-05 0)
(-0.006055 -4.51933e-05 0)
(-0.00598645 -4.85915e-05 0)
(-0.00591299 -5.19258e-05 0)
(-0.00583471 -5.51907e-05 0)
(-0.00575172 -5.83809e-05 0)
(-0.00566414 -6.14909e-05 0)
(-0.00557208 -6.45152e-05 0)
(-0.00547568 -6.74485e-05 0)
(-0.00537508 -7.02852e-05 0)
(-0.00527041 -7.30199e-05 0)
(-0.00516183 -7.56473e-05 0)
(-0.00504951 -7.8162e-05 0)
(-0.0049336 -8.05586e-05 0)
(-0.0048143 -8.28319e-05 0)
(-0.00469178 -8.49765e-05 0)
(-0.00456623 -8.69872e-05 0)
(-0.00443786 -8.8859e-05 0)
(-0.00430686 -9.05868e-05 0)
(-0.00417346 -9.21656e-05 0)
(-0.00403788 -9.35905e-05 0)
(-0.00390033 -9.48568e-05 0)
(-0.00376106 -9.59596e-05 0)
(-0.00362032 -9.68946e-05 0)
(-0.00347833 -9.76571e-05 0)
(-0.00333537 -9.82431e-05 0)
(-0.00319168 -9.86483e-05 0)
(-0.00304754 -9.88687e-05 0)
(-0.00290322 -9.89007e-05 0)
(-0.00275898 -9.87405e-05 0)
(-0.00261512 -9.83847e-05 0)
(-0.00247192 -9.78302e-05 0)
(-0.00232967 -9.7074e-05 0)
(-0.00218866 -9.61135e-05 0)
(-0.00204919 -9.49462e-05 0)
(-0.00191155 -9.35701e-05 0)
(-0.00177606 -9.19832e-05 0)
(-0.00164302 -9.0184e-05 0)
(-0.00151272 -8.81714e-05 0)
(-0.00138548 -8.59449e-05 0)
(-0.00126161 -8.3504e-05 0)
(-0.00114141 -8.0849e-05 0)
(-0.00102519 -7.79806e-05 0)
(-0.000913243 -7.49003e-05 0)
(-0.000805873 -7.16104e-05 0)
(-0.000703375 -6.81137e-05 0)
(-0.000606036 -6.44141e-05 0)
(-0.000514136 -6.05165e-05 0)
(-0.000427948 -5.64273e-05 0)
(-0.000347728 -5.21542e-05 0)
(-0.000273723 -4.77069e-05 0)
(-0.00020616 -4.30971e-05 0)
(-0.000145244 -3.83398e-05 0)
(-9.11562e-05 -3.34534e-05 0)
(-4.40435e-05 -2.84604e-05 0)
(-4.01528e-06 -2.3389e-05 0)
(2.88674e-05 -1.82742e-05 0)
(5.46034e-05 -1.31609e-05 0)
(7.32654e-05 -8.10621e-06 0)
(8.50202e-05 -3.18408e-06 0)
(9.01524e-05 1.50804e-06 0)
(8.90974e-05 5.84101e-06 0)
(8.24826e-05 9.64148e-06 0)
(7.11849e-05 1.26731e-05 0)
(5.63976e-05 1.46147e-05 0)
(3.96801e-05 1.50421e-05 0)
(2.30165e-05 1.34175e-05 0)
(9.18293e-06 9.18466e-06 0)
(1.69464e-06 2.64101e-06 0)
(2.825e-06 -9.09589e-06 0)
(1.34055e-05 -2.31668e-05 0)
(3.10678e-05 -3.10709e-05 0)
(5.08403e-05 -3.31384e-05 0)
(6.91208e-05 -3.04621e-05 0)
(8.33464e-05 -2.41338e-05 0)
(9.14358e-05 -1.50827e-05 0)
(9.17483e-05 -4.05595e-06 0)
(8.30508e-05 8.36646e-06 0)
(6.44483e-05 2.17379e-05 0)
(3.53194e-05 3.57143e-05 0)
(-4.73766e-06 5.00292e-05 0)
(-5.59466e-05 6.44743e-05 0)
(-0.000118388 7.8887e-05 0)
(-0.000192028 9.31399e-05 0)
(-0.000276738 0.000107133 0)
(-0.000372315 0.000120785 0)
(-0.000478496 0.000134033 0)
(-0.000594968 0.000146827 0)
(-0.000721378 0.000159126 0)
(-0.000857343 0.000170899 0)
(-0.00100245 0.000182121 0)
(-0.00115627 0.000192774 0)
(-0.00131836 0.000202843 0)
(-0.00148825 0.000212317 0)
(-0.00166549 0.000221191 0)
(-0.00184959 0.000229459 0)
(-0.00204008 0.00023712 0)
(-0.00223647 0.000244173 0)
(-0.00243829 0.00025062 0)
(-0.00264505 0.000256465 0)
(-0.00285628 0.000261712 0)
(-0.00307149 0.000266367 0)
(-0.00329021 0.000270435 0)
(-0.00351199 0.000273925 0)
(-0.00373634 0.000276843 0)
(-0.00396283 0.000279198 0)
(-0.00419099 0.000281 0)
(-0.00442039 0.000282258 0)
(-0.00465058 0.000282982 0)
(-0.00488115 0.000283181 0)
(-0.00511166 0.000282867 0)
(-0.00534172 0.00028205 0)
(-0.0055709 0.000280741 0)
(-0.00579882 0.000278951 0)
(-0.0060251 0.000276692 0)
(-0.00624935 0.000273974 0)
(-0.00647121 0.00027081 0)
(-0.00669032 0.000267212 0)
(-0.00690633 0.00026319 0)
(-0.0071189 0.000258757 0)
(-0.00732769 0.000253925 0)
(-0.0075324 0.000248706 0)
(-0.0077327 0.000243112 0)
(-0.0079283 0.000237155 0)
(-0.00811891 0.000230847 0)
(-0.00830424 0.0002242 0)
(-0.00848402 0.000217227 0)
(-0.008658 0.00020994 0)
(-0.00882591 0.000202351 0)
(-0.00898753 0.000194474 0)
(-0.00914261 0.000186319 0)
(-0.00929094 0.000177901 0)
(-0.0094323 0.00016923 0)
(-0.00956651 0.000160321 0)
(-0.00969335 0.000151185 0)
(-0.00981267 0.000141836 0)
(-0.00992428 0.000132287 0)
(-0.010028 0.00012255 0)
(-0.0101238 0.000112638 0)
(-0.0102114 0.000102565 0)
(-0.0102907 9.23435e-05 0)
(-0.0103617 8.19872e-05 0)
(-0.0104241 7.15094e-05 0)
(-0.010478 6.09237e-05 0)
(-0.0105232 5.02438e-05 0)
(-0.0105596 3.94833e-05 0)
(-0.0105873 2.86563e-05 0)
(-0.0106061 1.77767e-05 0)
(-0.0106161 6.85874e-06 0)
(-0.0106171 -4.08343e-06 0)
(-0.0106092 -1.50354e-05 0)
(-0.0105924 -2.59826e-05 0)
(-0.0105667 -3.69105e-05 0)
(-0.0105321 -4.78043e-05 0)
(-0.0104887 -5.8649e-05 0)
(-0.0104364 -6.94297e-05 0)
(-0.0103754 -8.01312e-05 0)
(-0.0103057 -9.07384e-05 0)
(-0.0102275 -0.000101236 0)
(-0.0101407 -0.000111608 0)
(-0.0100455 -0.00012184 0)
(-0.00994212 -0.000131916 0)
(-0.00983057 -0.000141819 0)
(-0.00971104 -0.000151535 0)
(-0.0095837 -0.000161048 0)
(-0.0094487 -0.000170342 0)
(-0.00930624 -0.0001794 0)
(-0.00915651 -0.000188208 0)
(-0.00899973 -0.000196749 0)
(-0.00883612 -0.000205008 0)
(-0.00866592 -0.000212969 0)
(-0.00848937 -0.000220616 0)
(-0.00830675 -0.000227933 0)
(-0.00811832 -0.000234906 0)
(-0.00792437 -0.000241519 0)
(-0.0077252 -0.000247756 0)
(-0.00752112 -0.000253603 0)
(-0.00731246 -0.000259044 0)
(-0.00709955 -0.000264066 0)
(-0.00688274 -0.000268654 0)
(-0.00666239 -0.000272794 0)
(-0.00643886 -0.000276472 0)
(-0.00621254 -0.000279674 0)
(-0.00598382 -0.000282389 0)
(-0.0057531 -0.000284602 0)
(-0.00552079 -0.000286302 0)
(-0.00528731 -0.000287478 0)
(-0.00505308 -0.000288118 0)
(-0.00481856 -0.00028821 0)
(-0.00458417 -0.000287747 0)
(-0.00435039 -0.000286716 0)
(-0.00411766 -0.000285111 0)
(-0.00388645 -0.000282923 0)
(-0.00365724 -0.000280145 0)
(-0.00343051 -0.00027677 0)
(-0.00320673 -0.000272793 0)
(-0.00298639 -0.000268209 0)
(-0.00276998 -0.000263015 0)
(-0.00255799 -0.000257208 0)
(-0.0023509 -0.000250788 0)
(-0.00214921 -0.000243755 0)
(-0.00195341 -0.00023611 0)
(-0.00176397 -0.000227859 0)
(-0.00158138 -0.000219005 0)
(-0.0014061 -0.000209558 0)
(-0.0012386 -0.000199528 0)
(-0.00107933 -0.000188928 0)
(-0.000928731 -0.000177776 0)
(-0.000787215 -0.000166092 0)
(-0.000655183 -0.000153902 0)
(-0.000533006 -0.000141237 0)
(-0.000421028 -0.000128137 0)
(-0.000319551 -0.000114647 0)
(-0.000228836 -0.000100826 0)
(-0.000149089 -8.67438e-05 0)
(-8.04487e-05 -7.24861e-05 0)
(-2.29767e-05 -5.81598e-05 0)
(2.33632e-05 -4.38978e-05 0)
(5.8725e-05 -2.98669e-05 0)
(8.34074e-05 -1.62771e-05 0)
(9.78871e-05 -3.39628e-06 0)
(0.000102861 8.43213e-06 0)
(9.92929e-05 1.8767e-05 0)
(8.8477e-05 2.70417e-05 0)
(7.21e-05 3.25365e-05 0)
(5.22683e-05 3.43679e-05 0)
(3.15293e-05 3.15189e-05 0)
(1.3417e-05 2.30182e-05 0)
(2.77647e-06 8.77254e-06 0)
(3.20757e-06 -1.69421e-05 0)
(1.47543e-05 -3.94235e-05 0)
(3.32131e-05 -5.08568e-05 0)
(5.27255e-05 -5.26148e-05 0)
(6.91862e-05 -4.64346e-05 0)
(7.96807e-05 -3.39867e-05 0)
(8.17951e-05 -1.673e-05 0)
(7.35804e-05 4.1223e-06 0)
(5.353e-05 2.75897e-05 0)
(2.05164e-05 5.28898e-05 0)
(-2.62705e-05 7.9401e-05 0)
(-8.73754e-05 0.00010663 0)
(-0.000163122 0.000134184 0)
(-0.000253653 0.000161749 0)
(-0.000358956 0.000189075 0)
(-0.0004789 0.000215962 0)
(-0.000613248 0.000242248 0)
(-0.000761682 0.000267802 0)
(-0.000923813 0.000292521 0)
(-0.0010992 0.000316319 0)
(-0.00128734 0.000339131 0)
(-0.00148772 0.000360902 0)
(-0.00169977 0.000381593 0)
(-0.00192291 0.000401169 0)
(-0.00215653 0.000419608 0)
(-0.00240003 0.000436893 0)
(-0.00265276 0.000453011 0)
(-0.0029141 0.000467956 0)
(-0.00318341 0.000481725 0)
(-0.00346003 0.00049432 0)
(-0.00374333 0.000505744 0)
(-0.00403265 0.000516005 0)
(-0.00432737 0.000525112 0)
(-0.00462683 0.000533075 0)
(-0.00493042 0.000539908 0)
(-0.00523751 0.000545623 0)
(-0.00554747 0.000550238 0)
(-0.0058597 0.000553768 0)
(-0.0061736 0.000556232 0)
(-0.00648857 0.000557648 0)
(-0.00680403 0.000558035 0)
(-0.00711941 0.000557413 0)
(-0.00743415 0.000555802 0)
(-0.0077477 0.000553224 0)
(-0.00805952 0.0005497 0)
(-0.00836908 0.000545252 0)
(-0.00867587 0.000539902 0)
(-0.00897939 0.000533673 0)
(-0.00927914 0.000526587 0)
(-0.00957465 0.000518667 0)
(-0.00986546 0.000509936 0)
(-0.0101511 0.000500419 0)
(-0.0104312 0.000490137 0)
(-0.0107052 0.000479116 0)
(-0.0109728 0.000467378 0)
(-0.0112335 0.000454948 0)
(-0.0114871 0.00044185 0)
(-0.011733 0.000428107 0)
(-0.011971 0.000413745 0)
(-0.0122008 0.000398787 0)
(-0.0124218 0.000383258 0)
(-0.012634 0.000367183 0)
(-0.0128369 0.000350587 0)
(-0.0130303 0.000333493 0)
(-0.0132138 0.000315928 0)
(-0.0133873 0.000297916 0)
(-0.0135505 0.000279483 0)
(-0.0137032 0.000260655 0)
(-0.0138451 0.000241456 0)
(-0.013976 0.000221913 0)
(-0.0140958 0.000202052 0)
(-0.0142043 0.000181898 0)
(-0.0143012 0.000161479 0)
(-0.0143866 0.00014082 0)
(-0.0144602 0.00011995 0)
(-0.014522 9.88935e-05 0)
(-0.0145717 7.76794e-05 0)
(-0.0146095 5.63347e-05 0)
(-0.0146352 3.48872e-05 0)
(-0.0146487 1.33648e-05 0)
(-0.01465 -8.20421e-06 0)
(-0.0146391 -2.97915e-05 0)
(-0.014616 -5.13682e-05 0)
(-0.0145807 -7.29056e-05 0)
(-0.0145332 -9.43744e-05 0)
(-0.0144737 -0.000115745 0)
(-0.0144021 -0.000136988 0)
(-0.0143185 -0.000158074 0)
(-0.0142231 -0.000178972 0)
(-0.0141159 -0.000199653 0)
(-0.0139971 -0.000220086 0)
(-0.0138669 -0.000240239 0)
(-0.0137253 -0.000260084 0)
(-0.0135727 -0.000279588 0)
(-0.0134091 -0.000298721 0)
(-0.0132348 -0.000317452 0)
(-0.0130501 -0.00033575 0)
(-0.0128552 -0.000353583 0)
(-0.0126504 -0.000370921 0)
(-0.0124359 -0.000387732 0)
(-0.0122121 -0.000403986 0)
(-0.0119793 -0.000419652 0)
(-0.0117378 -0.000434699 0)
(-0.0114881 -0.000449096 0)
(-0.0112304 -0.000462813 0)
(-0.0109651 -0.00047582 0)
(-0.0106928 -0.000488088 0)
(-0.0104137 -0.000499587 0)
(-0.0101284 -0.000510288 0)
(-0.0098373 -0.000520163 0)
(-0.00954086 -0.000529183 0)
(-0.00923958 -0.000537322 0)
(-0.00893398 -0.000544552 0)
(-0.00862455 -0.000550849 0)
(-0.00831185 -0.000556186 0)
(-0.00799641 -0.000560538 0)
(-0.0076788 -0.000563884 0)
(-0.00735958 -0.000566199 0)
(-0.00703934 -0.000567463 0)
(-0.00671867 -0.000567654 0)
(-0.00639818 -0.000566755 0)
(-0.00607849 -0.000564746 0)
(-0.00576022 -0.000561612 0)
(-0.005444 -0.000557337 0)
(-0.00513047 -0.000551908 0)
(-0.00482028 -0.000545314 0)
(-0.00451407 -0.000537544 0)
(-0.00421251 -0.00052859 0)
(-0.00391625 -0.000518448 0)
(-0.00362594 -0.000507114 0)
(-0.00334225 -0.000494588 0)
(-0.00306584 -0.000480872 0)
(-0.00279734 -0.000465972 0)
(-0.00253742 -0.000449897 0)
(-0.00228671 -0.000432661 0)
(-0.00204583 -0.000414282 0)
(-0.00181539 -0.000394783 0)
(-0.001596 -0.000374195 0)
(-0.00138821 -0.000352553 0)
(-0.0011926 -0.000329903 0)
(-0.00100965 -0.000306298 0)
(-0.00083987 -0.000281806 0)
(-0.000683678 -0.000256506 0)
(-0.00054146 -0.000230495 0)
(-0.000413536 -0.00020389 0)
(-0.000300148 -0.000176832 0)
(-0.000201453 -0.000149496 0)
(-0.000117497 -0.000122091 0)
(-4.81995e-05 -9.48774e-05 0)
(6.6728e-06 -6.81747e-05 0)
(4.7538e-05 -4.23795e-05 0)
(7.50341e-05 -1.7985e-05 0)
(9.00621e-05 4.39257e-06 0)
(9.38349e-05 2.39848e-05 0)
(8.79325e-05 3.98386e-05 0)
(7.43607e-05 5.0788e-05 0)
(5.55628e-05 5.545e-05 0)
(3.44431e-05 5.22705e-05 0)
(1.50629e-05 3.96984e-05 0)
(3.21443e-06 1.66711e-05 0)
(3.13492e-06 -2.49209e-05 0)
(1.40476e-05 -5.5375e-05 0)
(3.06769e-05 -6.92184e-05 0)
(4.67837e-05 -6.91119e-05 0)
(5.79849e-05 -5.75706e-05 0)
(6.11467e-05 -3.68953e-05 0)
(5.36592e-05 -9.09188e-06 0)
(3.33869e-05 2.41471e-05 0)
(-1.35098e-06 6.14216e-05 0)
(-5.18394e-05 0.000101587 0)
(-0.000119023 0.000143712 0)
(-0.000203555 0.000187042 0)
(-0.00030584 0.000230966 0)
(-0.000426072 0.00027499 0)
(-0.000564266 0.000318711 0)
(-0.000720291 0.000361801 0)
(-0.00089389 0.000403995 0)
(-0.0010847 0.000445075 0)
(-0.00129228 0.000484866 0)
(-0.00151611 0.000523224 0)
(-0.0017556 0.000560033 0)
(-0.00201013 0.000595202 0)
(-0.00227903 0.000628655 0)
(-0.00256159 0.000660337 0)
(-0.00285709 0.000690202 0)
(-0.00316478 0.000718218 0)
(-0.00348388 0.000744361 0)
(-0.00381363 0.000768616 0)
(-0.00415323 0.000790976 0)
(-0.0045019 0.000811439 0)
(-0.00485884 0.000830009 0)
(-0.00522325 0.000846695 0)
(-0.00559434 0.000861509 0)
(-0.00597133 0.000874465 0)
(-0.00635343 0.000885584 0)
(-0.00673987 0.000894886 0)
(-0.00712987 0.000902395 0)
(-0.00752268 0.000908137 0)
(-0.00791754 0.000912139 0)
(-0.00831372 0.000914431 0)
(-0.0087105 0.000915043 0)
(-0.00910715 0.000914006 0)
(-0.00950297 0.000911353 0)
(-0.00989728 0.000907118 0)
(-0.0102894 0.000901336 0)
(-0.0106787 0.00089404 0)
(-0.0110645 0.000885267 0)
(-0.0114461 0.000875054 0)
(-0.011823 0.000863437 0)
(-0.0121946 0.000850453 0)
(-0.0125603 0.00083614 0)
(-0.0129195 0.000820536 0)
(-0.0132716 0.000803679 0)
(-0.0136162 0.000785608 0)
(-0.0139526 0.000766362 0)
(-0.0142805 0.00074598 0)
(-0.0145993 0.0007245 0)
(-0.0149085 0.000701964 0)
(-0.0152078 0.00067841 0)
(-0.0154966 0.000653878 0)
(-0.0157745 0.000628409 0)
(-0.0160413 0.000602043 0)
(-0.0162963 0.000574821 0)
(-0.0165395 0.000546783 0)
(-0.0167702 0.000517972 0)
(-0.0169883 0.000488427 0)
(-0.0171935 0.000458191 0)
(-0.0173853 0.000427305 0)
(-0.0175637 0.000395813 0)
(-0.0177282 0.000363755 0)
(-0.0178788 0.000331176 0)
(-0.018015 0.000298117 0)
(-0.0181369 0.000264623 0)
(-0.0182441 0.000230737 0)
(-0.0183366 0.000196504 0)
(-0.0184141 0.000161968 0)
(-0.0184766 0.000127173 0)
(-0.0185239 9.21655e-05 0)
(-0.0185561 5.69904e-05 0)
(-0.0185729 2.16939e-05 0)
(-0.0185744 -1.36777e-05 0)
(-0.0185606 -4.90776e-05 0)
(-0.0185315 -8.44587e-05 0)
(-0.018487 -0.000119773 0)
(-0.0184272 -0.000154974 0)
(-0.0183522 -0.000190012 0)
(-0.018262 -0.000224838 0)
(-0.0181569 -0.000259405 0)
(-0.0180368 -0.000293662 0)
(-0.0179019 -0.00032756 0)
(-0.0177525 -0.000361049 0)
(-0.0175886 -0.000394079 0)
(-0.0174106 -0.0004266 0)
(-0.0172186 -0.000458561 0)
(-0.0170129 -0.000489912 0)
(-0.0167937 -0.000520601 0)
(-0.0165615 -0.000550578 0)
(-0.0163164 -0.000579792 0)
(-0.0160588 -0.000608193 0)
(-0.0157892 -0.000635729 0)
(-0.0155079 -0.00066235 0)
(-0.0152152 -0.000688006 0)
(-0.0149117 -0.000712645 0)
(-0.0145977 -0.00073622 0)
(-0.0142738 -0.00075868 0)
(-0.0139404 -0.000779976 0)
(-0.0135981 -0.00080006 0)
(-0.0132474 -0.000818884 0)
(-0.0128888 -0.000836402 0)
(-0.0125229 -0.000852567 0)
(-0.0121504 -0.000867333 0)
(-0.0117718 -0.000880657 0)
(-0.0113877 -0.000892495 0)
(-0.0109989 -0.000902805 0)
(-0.0106059 -0.000911546 0)
(-0.0102094 -0.000918679 0)
(-0.00981027 -0.000924167 0)
(-0.00940907 -0.000927972 0)
(-0.00900657 -0.000930061 0)
(-0.00860351 -0.000930401 0)
(-0.00820064 -0.000928961 0)
(-0.00779874 -0.000925713 0)
(-0.00739858 -0.000920631 0)
(-0.00700094 -0.000913693 0)
(-0.00660664 -0.000904876 0)
(-0.00621646 -0.000894164 0)
(-0.00583121 -0.000881543 0)
(-0.00545171 -0.000867 0)
(-0.00507877 -0.000850529 0)
(-0.00471321 -0.000832127 0)
(-0.00435583 -0.000811795 0)
(-0.00400745 -0.00078954 0)
(-0.00366887 -0.000765374 0)
(-0.00334088 -0.000739315 0)
(-0.00302427 -0.000711389 0)
(-0.00271979 -0.000681628 0)
(-0.0024282 -0.000650075 0)
(-0.00215022 -0.000616782 0)
(-0.00188653 -0.000581813 0)
(-0.00163781 -0.000545247 0)
(-0.00140466 -0.000507177 0)
(-0.00118766 -0.000467716 0)
(-0.000987321 -0.000427001 0)
(-0.000804082 -0.000385194 0)
(-0.000638312 -0.000342491 0)
(-0.000490281 -0.000299126 0)
(-0.00036015 -0.000255382 0)
(-0.000247949 -0.000211603 0)
(-0.000153557 -0.000168202 0)
(-7.66703e-05 -0.000125684 0)
(-1.67763e-05 -8.4664e-05 0)
(2.68861e-05 -4.58939e-05 0)
(5.53665e-05 -1.02927e-05 0)
(7.00478e-05 2.10185e-05 0)
(7.26963e-05 4.66816e-05 0)
(6.55142e-05 6.50719e-05 0)
(5.11519e-05 7.42883e-05 0)
(3.27496e-05 7.21855e-05 0)
(1.46857e-05 5.64813e-05 0)
(3.20312e-06 2.48743e-05 0)
(2.77234e-06 -3.20961e-05 0)
(1.18611e-05 -6.90578e-05 0)
(2.45514e-05 -8.36363e-05 0)
(3.46821e-05 -7.97684e-05 0)
(3.78063e-05 -6.07976e-05 0)
(3.06788e-05 -2.96809e-05 0)
(1.0592e-05 1.10182e-05 0)
(-2.46842e-05 5.91239e-05 0)
(-7.69276e-05 0.000112811 0)
(-0.000147517 0.000170561 0)
(-0.000237482 0.00023112 0)
(-0.000347549 0.000293451 0)
(-0.000478177 0.000356705 0)
(-0.000629598 0.000420181 0)
(-0.000801848 0.000483302 0)
(-0.000994796 0.000545595 0)
(-0.00120817 0.00060667 0)
(-0.00144157 0.000666205 0)
(-0.00169451 0.000723937 0)
(-0.00196641 0.000779649 0)
(-0.0022566 0.000833165 0)
(-0.00256437 0.000884343 0)
(-0.00288896 0.000933066 0)
(-0.00322956 0.000979245 0)
(-0.00358532 0.00102281 0)
(-0.00395539 0.0010637 0)
(-0.00433888 0.00110188 0)
(-0.00473487 0.00113732 0)
(-0.00514245 0.00117001 0)
(-0.0055607 0.00119994 0)
(-0.00598868 0.00122711 0)
(-0.00642545 0.00125153 0)
(-0.0068701 0.00127321 0)
(-0.00732169 0.00129218 0)
(-0.0077793 0.00130846 0)
(-0.008242 0.00132207 0)
(-0.0087089 0.00133306 0)
(-0.00917909 0.00134145 0)
(-0.00965168 0.00134729 0)
(-0.0101258 0.00135062 0)
(-0.0106006 0.00135147 0)
(-0.0110752 0.0013499 0)
(-0.0115488 0.00134595 0)
(-0.0120205 0.00133967 0)
(-0.0124896 0.00133111 0)
(-0.0129553 0.00132032 0)
(-0.0134168 0.00130736 0)
(-0.0138733 0.00129226 0)
(-0.0143241 0.0012751 0)
(-0.0147686 0.00125592 0)
(-0.015206 0.00123478 0)
(-0.0156356 0.00121173 0)
(-0.0160567 0.00118684 0)
(-0.0164688 0.00116015 0)
(-0.0168712 0.00113172 0)
(-0.0172634 0.00110162 0)
(-0.0176446 0.00106989 0)
(-0.0180145 0.0010366 0)
(-0.0183723 0.00100181 0)
(-0.0187177 0.000965574 0)
(-0.0190501 0.000927952 0)
(-0.0193691 0.000889005 0)
(-0.0196741 0.000848792 0)
(-0.0199648 0.000807374 0)
(-0.0202407 0.000764812 0)
(-0.0205015 0.000721167 0)
(-0.0207468 0.000676501 0)
(-0.0209762 0.000630875 0)
(-0.0211894 0.000584352 0)
(-0.0213861 0.000536995 0)
(-0.021566 0.000488868 0)
(-0.0217289 0.000440034 0)
(-0.0218745 0.000390557 0)
(-0.0220026 0.000340502 0)
(-0.0221131 0.000289935 0)
(-0.0222057 0.000238921 0)
(-0.0222803 0.000187528 0)
(-0.0223368 0.000135821 0)
(-0.0223751 8.38685e-05 0)
(-0.0223951 3.17385e-05 0)
(-0.0223968 -2.05003e-05 0)
(-0.0223801 -7.27789e-05 0)
(-0.0223451 -0.000125027 0)
(-0.0222918 -0.000177176 0)
(-0.0222202 -0.000229152 0)
(-0.0221303 -0.000280887 0)
(-0.0220224 -0.000332307 0)
(-0.0218965 -0.00038334 0)
(-0.0217528 -0.000433913 0)
(-0.0215914 -0.000483954 0)
(-0.0214126 -0.000533389 0)
(-0.0212166 -0.000582143 0)
(-0.0210036 -0.000630142 0)
(-0.0207739 -0.000677313 0)
(-0.0205278 -0.000723579 0)
(-0.0202657 -0.000768867 0)
(-0.0199879 -0.000813102 0)
(-0.0196948 -0.000856208 0)
(-0.0193868 -0.000898111 0)
(-0.0190644 -0.000938736 0)
(-0.018728 -0.000978009 0)
(-0.018378 -0.00101586 0)
(-0.0180151 -0.0010522 0)
(-0.0176397 -0.00108698 0)
(-0.0172524 -0.0011201 0)
(-0.0168539 -0.00115151 0)
(-0.0164446 -0.00118114 0)
(-0.0160253 -0.0012089 0)
(-0.0155966 -0.00123474 0)
(-0.0151592 -0.00125858 0)
(-0.0147139 -0.00128036 0)
(-0.0142612 -0.00130002 0)
(-0.0138021 -0.00131748 0)
(-0.0133372 -0.0013327 0)
(-0.0128673 -0.00134561 0)
(-0.0123934 -0.00135615 0)
(-0.0119161 -0.00136427 0)
(-0.0114364 -0.00136992 0)
(-0.0109551 -0.00137304 0)
(-0.010473 -0.0013736 0)
(-0.00999122 -0.00137154 0)
(-0.00951049 -0.00136682 0)
(-0.00903179 -0.00135942 0)
(-0.00855604 -0.00134929 0)
(-0.00808419 -0.00133641 0)
(-0.00761718 -0.00132075 0)
(-0.00715596 -0.0013023 0)
(-0.0067015 -0.00128104 0)
(-0.00625475 -0.00125696 0)
(-0.00581668 -0.00123007 0)
(-0.00538823 -0.00120036 0)
(-0.00497035 -0.00116784 0)
(-0.00456399 -0.00113255 0)
(-0.00417007 -0.00109451 0)
(-0.00378951 -0.00105376 0)
(-0.00342319 -0.00101036 0)
(-0.00307197 -0.000964371 0)
(-0.00273671 -0.000915875 0)
(-0.00241819 -0.000864973 0)
(-0.00211717 -0.000811786 0)
(-0.00183436 -0.000756457 0)
(-0.0015704 -0.000699158 0)
(-0.00132587 -0.000640096 0)
(-0.00110127 -0.000579512 0)
(-0.000897003 -0.000517699 0)
(-0.000713357 -0.000455002 0)
(-0.0005505 -0.000391833 0)
(-0.000408447 -0.000328688 0)
(-0.000287045 -0.000266158 0)
(-0.000185938 -0.000204955 0)
(-0.000104546 -0.000145933 0)
(-4.20212e-05 -9.01233e-05 0)
(2.78167e-06 -3.87616e-05 0)
(3.13506e-05 6.66786e-06 0)
(4.55609e-05 4.4396e-05 0)
(4.77247e-05 7.23341e-05 0)
(4.06057e-05 8.80502e-05 0)
(2.74788e-05 8.87736e-05 0)
(1.28293e-05 7.14233e-05 0)
(2.89997e-06 3.24472e-05 0)
(2.22841e-06 -3.78268e-05 0)
(8.63541e-06 -7.89635e-05 0)
(1.57554e-05 -9.20673e-05 0)
(1.78583e-05 -8.22143e-05 0)
(1.06225e-05 -5.35512e-05 0)
(-9.21344e-06 -9.68384e-06 0)
(-4.4373e-05 4.62743e-05 0)
(-9.71085e-05 0.00011167 0)
(-0.000169231 0.000184255 0)
(-0.000262161 0.00026214 0)
(-0.000376967 0.000343739 0)
(-0.000514414 0.000427728 0)
(-0.000674992 0.000513004 0)
(-0.000858952 0.000598647 0)
(-0.00106634 0.000683892 0)
(-0.00129702 0.000768102 0)
(-0.0015507 0.000850749 0)
(-0.00182696 0.000931391 0)
(-0.00212526 0.00100967 0)
(-0.00244496 0.00108527 0)
(-0.00278534 0.00115796 0)
(-0.00314561 0.00122752 0)
(-0.00352492 0.0012938 0)
(-0.00392237 0.00135666 0)
(-0.00433703 0.00141599 0)
(-0.00476791 0.00147172 0)
(-0.00521403 0.00152378 0)
(-0.00567435 0.00157213 0)
(-0.00614785 0.00161674 0)
(-0.00663347 0.0016576 0)
(-0.00713016 0.00169471 0)
(-0.00763686 0.00172806 0)
(-0.00815251 0.00175768 0)
(-0.00867605 0.00178359 0)
(-0.00920643 0.00180583 0)
(-0.0097426 0.00182442 0)
(-0.0102835 0.00183941 0)
(-0.0108282 0.00185084 0)
(-0.0113755 0.00185878 0)
(-0.0119245 0.00186326 0)
(-0.0124743 0.00186435 0)
(-0.0130238 0.00186211 0)
(-0.0135721 0.0018566 0)
(-0.0141181 0.00184789 0)
(-0.0146611 0.00183604 0)
(-0.0152002 0.00182113 0)
(-0.0157343 0.00180321 0)
(-0.0162627 0.00178237 0)
(-0.0167844 0.00175868 0)
(-0.0172988 0.00173221 0)
(-0.0178049 0.00170303 0)
(-0.0183021 0.00167123 0)
(-0.0187894 0.00163688 0)
(-0.0192663 0.00160006 0)
(-0.0197319 0.00156084 0)
(-0.0201856 0.00151931 0)
(-0.0206268 0.00147554 0)
(-0.0210547 0.00142961 0)
(-0.0214687 0.00138162 0)
(-0.0218683 0.00133162 0)
(-0.0222529 0.00127972 0)
(-0.0226219 0.00122599 0)
(-0.0229748 0.00117051 0)
(-0.0233111 0.00111337 0)
(-0.0236303 0.00105465 0)
(-0.023932 0.000994439 0)
(-0.0242157 0.000932817 0)
(-0.024481 0.000869872 0)
(-0.0247276 0.000805689 0)
(-0.0249551 0.000740357 0)
(-0.0251631 0.000673962 0)
(-0.0253515 0.000606593 0)
(-0.0255198 0.000538339 0)
(-0.0256679 0.00046929 0)
(-0.0257956 0.000399534 0)
(-0.0259026 0.000329165 0)
(-0.0259888 0.000258273 0)
(-0.026054 0.000186952 0)
(-0.0260982 0.000115294 0)
(-0.0261212 4.3393e-05 0)
(-0.026123 -2.86553e-05 0)
(-0.0261036 -0.000100756 0)
(-0.0260629 -0.000172812 0)
(-0.0260011 -0.000244727 0)
(-0.0259181 -0.000316402 0)
(-0.025814 -0.000387741 0)