/*--------------------------------*- C++ -*----------------------------------*\
  =========                 |
  \\      /  F ield         | OpenFOAM: The Open Source CFD Toolbox
   \\    /   O peration     | Website:  https://openfoam.org
    \\  /    A nd           | Version:  7
     \\/     M anipulation  |
\*---------------------------------------------------------------------------*/
FoamFile
{
    version     2.0;
    format      ascii;
    class       volScalarField;
    location    "0.2";
    object      p;
}
// * * * * * * * * * * * * * * * * * * * * * * * * * * * * * * * * * * * * * //

dimensions      [0 2 -2 0 0 0 0];

internalField   nonuniform List<scalar> 
1600
(
2.24559e-07
-0.00119054
-0.00391976
-0.00759115
-0.0115331
-0.0152503
-0.0183852
-0.0206856
-0.021984
-0.0221807
-0.0212303
-0.0191306
-0.0159152
-0.0116469
-0.00641313
-0.000321453
0.00650324
0.0139216
0.0217822
0.0299244
0.0381799
0.0463762
0.0543389
0.0618952
0.0688775
0.0751273
0.0805001
0.08487
0.0881355
0.090225
0.0911038
0.0907805
0.0893153
0.0868292
0.0835155
0.0796531
0.075622
0.0719306
0.0692464
0.0681308
0.00118872
-2.05421e-06
-0.00221725
-0.00506648
-0.00810668
-0.0109729
-0.0133807
-0.0151171
-0.0160321
-0.0160297
-0.0150601
-0.0131116
-0.0102051
-0.00638883
-0.00173375
0.00366944
0.00971366
0.0162779
0.0232299
0.0304284
0.0377252
0.0449687
0.0520055
0.0586846
0.0648599
0.070395
0.0751663
0.0790683
0.0820182
0.0839609
0.0848744
0.0847757
0.0837267
0.0818401
0.0792867
0.0763002
0.0731824
0.0703091
0.0681272
0.067017
0.003931
0.00220441
-4.1029e-05
-0.00259844
-0.005225
-0.00765098
-0.00965291
-0.0110592
-0.0117444
-0.0116247
-0.0106542
-0.00881977
-0.00613666
-0.00264467
0.00159538
0.00650452
0.0119884
0.0179395
0.0242396
0.0307621
0.0373739
0.0439383
0.0503177
0.0563763
0.0619834
0.0670171
0.0713681
0.0749435
0.0776715
0.0795058
0.0804296
0.0804608
0.0796555
0.0781128
0.0759766
0.0734377
0.070736
0.0681531
0.0659473
0.0643304
0.00769203
0.0050824
0.002443
-0.000183941
-0.00273687
-0.00501594
-0.006847
-0.00809852
-0.00867206
-0.00850091
-0.0075484
-0.00580521
-0.00328616
-2.74236e-05
0.00391602
0.00847283
0.0135575
0.0190724
0.0249097
0.0309536
0.0370821
0.0431698
0.0490899
0.0547175
0.0599322
0.0646217
0.0686851
0.0720367
0.0746102
0.076362
0.0772751
0.0773628
0.0766715
0.075283
0.0733141
0.0709166
0.0682827
0.0656274
0.0630378
0.0605704
0.0118773
0.00824004
0.00503353
0.00215515
-0.000500268
-0.00278887
-0.00457814
-0.00577356
-0.00630395
-0.00612104
-0.0051999
-0.00353754
-0.0011511
0.00192423
0.0056369
0.00992086
0.0146973
0.0198761
0.025358
0.0310357
0.0367963
0.042523
0.0480977
0.0534035
0.0583275
0.0627637
0.0666168
0.0698048
0.0722632
0.0739482
0.0748394
0.0749429
0.074293
0.0729533
0.0710147
0.0685938
0.0658442
0.062929
0.0597776
0.0563096
0.0160612
0.0113534
0.0074871
0.00423961
0.00135955
-0.00105209
-0.00289648
-0.00411156
-0.00465159
-0.00448657
-0.00360422
-0.00200948
0.000276404
0.00321718
0.00676275
0.0108503
0.0154058
0.0203448
0.0255742
0.0309937
0.0364969
0.0419737
0.0473122
0.0524011
0.0571323
0.0614035
0.0651218
0.0682063
0.0705916
0.0722308
0.0730976
0.0731891
0.0725268
0.0711566
0.0691456
0.0665806
0.0635854
0.0602851
0.0564721
0.0519533
0.0199348
0.0141615
0.0095889
0.00589632
0.00270693
9.03123e-05
-0.00188062
-0.00317155
-0.00375944
-0.00363149
-0.00278807
-0.00124288
0.000977489
0.00383427
0.0072771
0.0112448
0.0156661
0.0204607
0.0255398
0.0308076
0.0361629
0.0414998
0.0467106
0.051687
0.0563234
0.0605188
0.06418
0.0672246
0.069584
0.0712055
0.0720556
0.072121
0.0714099
0.0699516
0.0677925
0.0649952
0.0616618
0.057892
0.0533617
0.0477877
0.0232654
0.0164507
0.011154
0.00697275
0.00342141
0.000547063
-0.00159691
-0.00299955
-0.00365763
-0.00357408
-0.00276151
-0.00124258
0.000950048
0.00377408
0.00717764
0.0110997
0.0154706
0.020212
0.0252382
0.0304565
0.0357685
0.0410711
0.0462585
0.0512237
0.0558613
0.0600692
0.0637519
0.0668233
0.0692091
0.0708496
0.0717019
0.0717418
0.0709642
0.0693831
0.0670271
0.063939
0.0602068
0.0559144
0.0506381
0.044021
0.0258711
0.018042
0.0120181
0.00732569
0.00338266
0.000220133
-0.00212326
-0.00365605
-0.00439229
-0.00434918
-0.00355088
-0.00202896
0.000177507
0.00302195
0.00645013
0.0104001
0.0148023
0.0195795
0.0246475
0.0299152
0.0352856
0.0406567
0.045923
0.050977
0.0557115
0.0600216
0.0638075
0.0669771
0.0694489
0.0711542
0.0720398
0.0720694
0.071225
0.0695063
0.0669263
0.0635125
0.0593438
0.0544956
0.0484571
0.0408084
0.0276017
0.0187799
0.0120314
0.00681813
0.00246921
-0.00099565
-0.00354907
-0.005216
-0.00602579
-0.00600867
-0.00519965
-0.00363902
-0.00137246
0.00154871
0.00506715
0.00911913
0.0136343
0.0185356
0.023739
0.0291539
0.0346834
0.0402253
0.0456728
0.0509166
0.055846
0.0603514
0.064327
0.067673
0.0702989
0.0721254
0.0730877
0.0731367
0.0722412
0.0703873
0.0675743
0.0638171
0.0591897
0.0537646
0.0469511
0.0382729
0.0283243
0.0185229
0.0110535
0.005317
0.000558642
-0.00321054
-0.00597186
-0.0077647
-0.00863228
-0.00861689
-0.00776387
-0.00612207
-0.00374391
-0.000685837
0.00299118
0.00722103
0.0119319
0.0170458
0.0224783
0.0281382
0.0339278
0.0397435
0.0454764
0.0510134
0.0562392
0.0610383
0.0652968
0.0689057
0.0717637
0.0737795
0.074875
0.0749875
0.0740718
0.0721007
0.0690608
0.0649563
0.0598592
0.0538425
0.0462394
0.0365203
0.0279133
0.0171358
0.00894748
0.00268974
-0.00247422
-0.00654024
-0.00949684
-0.0113968
-0.0122962
-0.012249
-0.0113105
-0.00953812
-0.00699119
-0.00373156
0.000175789
0.00466185
0.00965281
0.0150693
0.0208256
0.0268294
0.0329816
0.0391761
0.0453008
0.0512384
0.0568675
0.0620649
0.0667077
0.0706758
0.0738552
0.076141
0.0774402
0.0776751
0.0767854
0.07473
0.071483
0.0670388
0.061469
0.0548497
0.0464382
0.0356517
0.0262433
0.0144837
0.00557557
-0.00119916
-0.00675931
-0.0111069
-0.0142372
-0.0162158
-0.0171117
-0.0169899
-0.0159162
-0.0139566
-0.0111775
-0.00764656
-0.00343311
0.00139064
0.00674854
0.0125594
0.0187361
0.0251847
0.0318039
0.038485
0.045112
0.0515623
0.0577077
0.063416
0.0685538
0.0729883
0.0765913
0.0792419
0.0808306
0.0812623
0.0804605
0.0783686
0.0749476
0.0701816
0.0641432
0.0569121
0.0476675
0.0357723
0.0231835
0.0104266
0.000794559
-0.00649138
-0.0124338
-0.017041
-0.0203149
-0.0223345
-0.0231817
-0.0229335
-0.0216661
-0.0194548
-0.0163735
-0.0124959
-0.00789596
-0.0026493
0.00316539
0.00946505
0.0161609
0.0231572
0.0303507
0.0376297
0.0448738
0.0519546
0.0587364
0.0650772
0.0708314
0.0758522
0.0799949
0.0831209
0.0851013
0.0858216
0.0851863
0.0831216
0.0795731
0.0745143
0.0680176
0.060167
0.0500589
0.036999
0.0185935
0.00481545
-0.00554783
-0.013338
-0.0196444
-0.0244823
-0.0278613
-0.0298744
-0.0306178
-0.0301813
-0.0286525
-0.0261165
-0.0226556
-0.0183496
-0.0132775
-0.00751853
-0.0011538
0.0057318
0.013048
0.0206978
0.0285758
0.0365674
0.0445481
0.0523835
0.0599296
0.067034
0.0735379
0.0792786
0.0840932
0.0878223
0.0903153
0.0914351
0.0910638
0.0891073
0.0854934
0.0801819
0.0732445
0.0647688
0.0537614
0.0394664
0.0123197
-0.0025115
-0.0136167
-0.0219025
-0.0285499
-0.0335823
-0.0370182
-0.0389667
-0.0395399
-0.0388419
-0.0369733
-0.0340301
-0.0301035
-0.0252803
-0.0196446
-0.0132792
-0.00626749
0.00130421
0.00934476
0.0177561
0.0264316
0.0352543
0.0440958
0.0528159
0.0612624
0.0692719
0.0766714
0.0832808
0.0889167
0.0933963
0.0965438
0.0981954
0.0982071
0.09646
0.09286
0.08735
0.0799985
0.0708948
0.0589476
0.0433339
0.0041922
-0.0117329
-0.0235936
-0.0323647
-0.0393242
-0.0445057
-0.047939
-0.0497519
-0.0500749
-0.0490293
-0.0467301
-0.0432859
-0.0387978
-0.0333604
-0.027063
-0.0199919
-0.0122324
-0.00387153
0.00499954
0.0142828
0.0238712
0.0336464
0.0434772
0.0532183
0.0627095
0.0717762
0.0802305
0.0878735
0.0944991
0.0998983
0.103866
0.106206
0.106745
0.105332
0.101847
0.0962091
0.0884812
0.0787519
0.0658204
0.0487912
-0.00597877
-0.0230482
-0.0356811
-0.0449238
-0.0521586
-0.0574324
-0.0607893
-0.0623798
-0.0623567
-0.0608611
-0.0580256
-0.0539731
-0.0488164
-0.0426583
-0.0355937
-0.027712
-0.0190999
-0.00984392
-3.42741e-05
0.0102326
0.0208508
0.0317023
0.0426544
0.0535578
0.0642454
0.0745317
0.0842137
0.0930726
0.100877
0.107389
0.112368
0.115584
0.116823
0.115898
0.112653
0.10698
0.098928
0.0885825
0.0746199
0.056065
-0.0184068
-0.0366825
-0.0501074
-0.0598035
-0.0672665
-0.0725605
-0.0757489
-0.07701
-0.076524
-0.0744562
-0.0709602
-0.0661761
-0.0602298
-0.0532334
-0.0452875
-0.0364843
-0.0269107
-0.0166516
-0.00579422
0.00556836
0.0173336
0.0293859
0.0415931
0.053804
0.0658461
0.0775242
0.0886203
0.0988947
0.10809
0.115933
0.122147
0.126458
0.128605
0.128355
0.125508
0.119918
0.111615
0.100673
0.0856317
0.0654269
-0.0333346
-0.052893
-0.0671332
-0.0772572
-0.0848867
-0.0901086
-0.093012
-0.0938106
-0.0927185
-0.0899311
-0.0856278
-0.079969
-0.0730957
-0.0651304
-0.0561796
-0.0463374
-0.0356895
-0.0243175
-0.0123034
0.000265863
0.0132938
0.02667
0.0402661
0.0539315
0.0674909
0.080741
0.09345
0.105358
0.116177
0.125601
0.133307
0.13897
0.142274
0.142929
0.140678
0.135322
0.126866
0.115364
0.0991964
0.0772027
-0.0510405
-0.0719773
-0.0870596
-0.097576
-0.10529
-0.110319
-0.112789
-0.112957
-0.111082
-0.107396
-0.10211
-0.0954088
-0.0874516
-0.0783717
-0.0682815
-0.0572759
-0.0454376
-0.0328424
-0.0195641
-0.00568038
0.00872193
0.0235415
0.0386571
0.0539229
0.069164
0.0841724
0.0987043
0.11248
0.125183
0.136467
0.14596
0.153277
0.158036
0.159876
0.158467
0.153544
0.145067
0.133061
0.115722
0.0917833
-0.0718485
-0.094285
-0.11024
-0.121098
-0.128785
-0.133464
-0.135306
-0.134631
-0.131751
-0.126947
-0.120468
-0.112528
-0.103306
-0.0929487
-0.0815726
-0.0692722
-0.0561248
-0.0421969
-0.0275506
-0.0122504
0.00363096
0.0200058
0.0367651
0.0537724
0.070858
0.0878133
0.104387
0.12028
0.135149
0.148606
0.160223
0.169549
0.176121
0.179489
0.179231
0.174994
0.166674
0.154249
0.135701
0.10964
-0.0961422
-0.120234
-0.137096
-0.14822
-0.155728
-0.159844
-0.160808
-0.159016
-0.154853
-0.14866
-0.140733
-0.131322
-0.120629
-0.108811
-0.0959899
-0.0822568
-0.0676799
-0.0523128
-0.0362014
-0.0193917
-0.00193733
0.0160932
0.0346091
0.0534895
0.0725758
0.091665
0.110502
0.128777
0.146118
0.162094
0.176221
0.187968
0.19678
0.202097
0.203379
0.200156
0.192233
0.179516
0.159729
0.131343
-0.124385
-0.150333
-0.168139
-0.179419
-0.186535
-0.189801
-0.189553
-0.186291
-0.180493
-0.172577
-0.162896
-0.15174
-0.139336
-0.125854
-0.111416
-0.0961071
-0.0799816
-0.0630747
-0.0454109
-0.0270119
-0.00790603
0.0118642
0.0322331
0.0531025
0.0743333
0.0957354
0.117059
0.137986
0.158125
0.177004
0.194076
0.208726
0.220287
0.22807
0.231382
0.2296
0.222398
0.209573
0.188534
0.157587
-0.157148
-0.185217
-0.203999
-0.215269
-0.221693
-0.223717
-0.221813
-0.216623
-0.208746
-0.198694
-0.186888
-0.173666
-0.159278
-0.143906
-0.127669
-0.110638
-0.0928483
-0.0743114
-0.0550225
-0.0349728
-0.0141576
0.0074138
0.0297089
0.0526614
0.0761606
0.10004
0.124064
0.147919
0.171197
0.193395
0.213903
0.232013
0.246935
0.257819
0.263784
0.263999
0.257959
0.245294
0.223015
0.189228
-0.195158
-0.225693
-0.245474
-0.256476
-0.261777
-0.262019
-0.257867
-0.250154
-0.239634
-0.226936
-0.212563
-0.196899
-0.180221
-0.162714
-0.144486
-0.125589
-0.106031
-0.0857889
-0.0648232
-0.0430856
-0.0205307
0.00287403
0.0271383
0.0522377
0.0781011
0.104597
0.13152
0.15857
0.185342
0.211305
0.235796
0.258013
0.277025
0.291793
0.301202
0.304151
0.299877
0.287762
0.264298
0.227333
-0.239358
-0.272817
-0.293584
-0.303921
-0.307472
-0.305181
-0.297986
-0.286975
-0.273103
-0.257137
-0.239671
-0.221137
-0.201829
-0.181926
-0.161516
-0.140619
-0.119204
-0.0972071
-0.0745408
-0.05111
-0.0268198
-0.00158664
0.0246513
0.0519223
0.0802079
0.109427
0.139418
0.169916
0.200534
0.230735
0.259813
0.286877
0.310847
0.330469
0.344336
0.350996
0.349324
0.338333
0.313812
0.273257
-0.291019
-0.327999
-0.349663
-0.358704
-0.359589
-0.353712
-0.342405
-0.327094
-0.308983
-0.289
-0.26783
-0.245946
-0.223644
-0.201082
-0.17831
-0.1553
-0.13197
-0.1082
-0.0838471
-0.0587584
-0.0327804
-0.00576927
0.0223992
0.0518178
0.0825346
0.114535
0.147722
0.18189
0.216694
0.251619
0.28594
0.318694
0.348653
0.374325
0.393956
0.405637
0.407744
0.398733
0.37341
0.328752
-0.351896
-0.393173
-0.415481
-0.422218
-0.419077
-0.408138
-0.391285
-0.370386
-0.346941
-0.322053
-0.296487
-0.270736
-0.245071
-0.219601
-0.194315
-0.169118
-0.143857
-0.118344
-0.0923669
-0.0657063
-0.0381407
-0.00945665
0.0205422
0.0520252
0.085121
0.119901
0.156355
0.194364
0.233663
0.273794
0.314054
0.353442
0.390606
0.423805
0.450881
0.469355
0.476912
0.471184
0.445545
0.396151
-0.424514
-0.471055
-0.493421
-0.496219
-0.48702
-0.468944
-0.444633
-0.416509
-0.386407
-0.355593
-0.324881
-0.294734
-0.265359
-0.236776
-0.20888
-0.181481
-0.154336
-0.127171
-0.0996958
-0.0716114
-0.0426206
-0.0124328
0.0192297
0.0526233
0.087972
0.125451
0.165165
0.207116
0.251158
0.296946
0.343858
0.390917
0.436697
0.479232
0.515926
0.543601
0.559016
0.558588
0.533545
0.478665
-0.512637
-0.565562
-0.586721
-0.582894
-0.564593
-0.536471
-0.502177
-0.464792
-0.426482
-0.38862
-0.351991
-0.316959
-0.283597
-0.25178
-0.221267
-0.19174
-0.162843
-0.1342
-0.105427
-0.0761405
-0.0459596
-0.0145104
0.0185726
0.0536417
0.0910288
0.131033
0.173898
0.219785
0.268723
0.320545
0.374798
0.430624
0.486623
0.540683
0.589783
0.629942
0.65672
0.664771
0.642048
0.580891
-0.622135
-0.682463
-0.699782
-0.684896
-0.652924
-0.610715
-0.563174
-0.514068
-0.465811
-0.419748
-0.376499
-0.336208
-0.298716
-0.263684
-0.23068
-0.199222
-0.168816
-0.138967
-0.109189
-0.0790057
-0.0479511
-0.0155644
0.0186108
0.0550281
0.0941367
0.136374
0.182152
0.23183
0.285669
0.343767
0.405951
0.471631
0.539601
0.607771
0.672812
0.729917
0.773186
0.794801
0.777687
0.709743
-0.762624
-0.830435
-0.838543
-0.805256
-0.752803
-0.690992
-0.626101
-0.562449
-0.502443
-0.447135
-0.396758
-0.351057
-0.309516
-0.271495
-0.236308
-0.203275
-0.171738
-0.141073
-0.110685
-0.0800054
-0.0484812
-0.0155684
0.0192787
0.0566153
0.0970117
0.141055
0.189345
0.242477
0.301009
0.365398
0.435896
0.512382
0.594105
0.67931
0.764667
0.844718
0.911978
0.955355
0.950178
0.87621
-0.950794
-1.02274
-1.01074
-0.946948
-0.864041
-0.775329
-0.688203
-0.607024
-0.533653
-0.468403
-0.410776
-0.359891
-0.314717
-0.274214
-0.237389
-0.203328
-0.171197
-0.140237
-0.109745
-0.0790652
-0.0475664
-0.0146287
0.0203747
0.0580934
0.0992146
0.144477
0.19468
0.250684
0.313399
0.383743
0.462558
0.550447
0.647496
0.752793
0.863624
0.974473
1.07656
1.15495
1.17406
1.09891
-1.21715
-1.27969
-1.22549
-1.11152
-0.984056
-0.859359
-0.744744
-0.64342
-0.555734
-0.480563
-0.416233
-0.360953
-0.313021
-0.270906
-0.233269
-0.198949
-0.166933
-0.136335
-0.106358
-0.0762707
-0.0453808
-0.0130076
0.0215405
0.0589916
0.100135
0.14585
0.197129
0.25511
0.321092
0.396537
0.483042
0.582226
0.695496
0.823544
0.965355
1.1167
1.26882
1.40346
1.47112
1.4112
-1.61769
-1.63093
-1.49151
-1.2967
-1.10588
-0.934997
-0.788306
-0.665542
-0.56398
-0.480138
-0.410639
-0.352514
-0.303264
-0.260828
-0.223513
-0.189925
-0.1589
-0.129448
-0.100703
-0.0718861
-0.0422642
-0.0111213
0.0222744
0.0587031
0.0990289
0.144241
0.195501
0.2542
0.322022
0.401015
0.49365
0.602838
0.73185
0.883964
1.06154
1.26421
1.48649
1.71006
1.87237
1.87272
-2.25445
-2.11586
-1.81357
-1.49441
-1.21741
-0.990507
-0.809412
-0.666451
-0.553625
-0.464013
-0.392068
-0.333472
-0.284903
-0.243803
-0.208186
-0.176481
-0.147424
-0.119967
-0.0932163
-0.0663756
-0.0387059
-0.00948614
0.0220235
0.0566199
0.0952011
0.138819
0.188747
0.246567
0.314288
0.394498
0.49056
0.606848
0.748979
0.923932
1.13976
1.40419
1.72092
2.07937
2.41782
2.58908
-3.3559
-2.78316
-2.17269
-1.67584
-1.29257
-1.00573
-0.794146
-0.637273
-0.519331
-0.429176
-0.358976
-0.303186
-0.257841
-0.220061
-0.187703
-0.159135
-0.133077
-0.10849
-0.0845014
-0.0603435
-0.0353082
-0.00870566
0.0201735
0.0520993
0.0879501
0.128773
0.175863
0.230878
0.295999
0.374169
0.46945
0.587542
0.736521
0.927884
1.17796
1.50833
1.94097
2.49106
3.15794
3.79442
-5.52065
-3.6608
-2.43094
-1.71416
-1.24178
-0.92181
-0.704866
-0.553971
-0.445496
-0.365215
-0.304193
-0.256577
-0.218409
-0.186926
-0.160132
-0.136538
-0.114988
-0.0945572
-0.0744698
-0.0540481
-0.0326674
-0.00971971
0.015421
0.0434362
0.0751072
0.111371
0.153401
0.202719
0.261369
0.332193
0.419272
0.52867
0.669672
0.857063
1.1154
1.48389
2.01596
2.80538
4.1234
6.09138
-9.20661
-4.51955
-2.30621
-1.42118
-0.958936
-0.682904
-0.512253
-0.400586
-0.322921
-0.266424
-0.223901
-0.190923
-0.16458
-0.142864
-0.124317
-0.107844
-0.0925829
-0.0778371
-0.0630161
-0.0475988
-0.0311025
-0.0130561
0.00702526
0.0296673
0.0554686
0.0851422
0.119572
0.159896
0.207635
0.2649
0.334751
0.421853
0.533753
0.683738
0.897439
1.2241
1.75389
2.73324
5.0614
9.86891
)
;

boundaryField
{
    movingWall
    {
        type            zeroGradient;
    }
    fixedWalls
    {
        type            zeroGradient;
    }
    frontAndBack
    {
        type            empty;
    }
}


// ************************************************************************* //
