/*--------------------------------*- C++ -*----------------------------------*\
  =========                 |
  \\      /  F ield         | OpenFOAM: The Open Source CFD Toolbox
   \\    /   O peration     | Website:  https://openfoam.org
    \\  /    A nd           | Version:  7
     \\/     M anipulation  |
\*---------------------------------------------------------------------------*/
FoamFile
{
    version     2.0;
    format      ascii;
    class       volScalarField;
    location    "0.05";
    object      p;
}
// * * * * * * * * * * * * * * * * * * * * * * * * * * * * * * * * * * * * * //

dimensions      [0 2 -2 0 0 0 0];

internalField   nonuniform List<scalar> 
25600
(
-1.54381e-07
7.13938e-05
6.76789e-05
-7.0439e-05
-0.000353654
-0.000781026
-0.00135081
-0.00204899
-0.00286281
-0.00377794
-0.00478143
-0.00585952
-0.00699675
-0.00817571
-0.00937699
-0.0105853
-0.0117858
-0.0129677
-0.0141203
-0.015232
-0.016294
-0.0172981
-0.0182355
-0.0190983
-0.019881
-0.0205812
-0.0211974
-0.0217333
-0.0221855
-0.0225601
-0.0228574
-0.0230785
-0.0232252
-0.0233023
-0.0233102
-0.023248
-0.0231169
-0.0229182
-0.0226536
-0.0223248
-0.0219335
-0.0214834
-0.0209822
-0.0204379
-0.0198544
-0.0192318
-0.0185681
-0.0178581
-0.0170965
-0.0162815
-0.0154141
-0.0144943
-0.0135197
-0.0124888
-0.0114007
-0.0102541
-0.00904823
-0.00778504
-0.00646904
-0.00510546
-0.00369907
-0.00225393
-0.000772359
0.00074565
0.0023018
0.00389673
0.0055286
0.00719456
0.00889213
0.0106199
0.0123772
0.0141633
0.0159787
0.0178239
0.0196983
0.0216009
0.0235308
0.025486
0.027463
0.029457
0.0314623
0.0334744
0.035492
0.037514
0.0395378
0.0415586
0.0435703
0.0455665
0.0475422
0.0494934
0.0514177
0.0533132
0.0551776
0.0570069
0.0587952
0.0605369
0.0622294
0.0638726
0.065468
0.0670169
0.0685201
0.0699763
0.0713839
0.0727417
0.0740488
0.075304
0.0765059
0.0776525
0.0787415
0.0797692
0.0807311
0.0816232
0.0824414
0.0831823
0.0838437
0.0844236
0.0849196
0.0853295
0.0856523
0.0858888
0.08604
0.086107
0.0860923
0.0859987
0.0858291
0.085586
0.0852719
0.0848898
0.084443
0.0839354
0.0833718
0.0827563
0.08209
0.0813722
0.0806034
0.0797888
0.0789377
0.0780603
0.0771636
0.0762525
0.0753303
0.0743994
0.0734636
0.072528
0.0715982
0.0706802
0.0697789
0.0689001
0.0680539
0.0672526
0.0665089
0.0658343
0.0652393
0.0647352
0.064335
0.0640509
0.0638936
0.0638653
0.0639531
0.0640884
-6.47155e-05
-5.97037e-05
-0.000142455
-0.000341509
-0.000654848
-0.00108421
-0.00162709
-0.00227815
-0.00302887
-0.0038646
-0.0047742
-0.00574677
-0.00677063
-0.00783098
-0.00891316
-0.0100011
-0.0110821
-0.0121475
-0.0131878
-0.0141956
-0.0151627
-0.0160812
-0.0169427
-0.0177386
-0.0184621
-0.0191124
-0.0196892
-0.02019
-0.0206186
-0.0209754
-0.021261
-0.0214755
-0.0216197
-0.0216983
-0.0217129
-0.0216614
-0.0215422
-0.021357
-0.0211075
-0.0207949
-0.0204229
-0.0199953
-0.0195163
-0.0189906
-0.0184222
-0.017813
-0.0171628
-0.0164676
-0.015722
-0.0149232
-0.0140716
-0.0131682
-0.0122126
-0.0112033
-0.0101389
-0.0090171
-0.00783766
-0.00660387
-0.00532051
-0.0039918
-0.00262108
-0.00121166
0.000234171
0.0017163
0.00323567
0.00479278
0.0063863
0.00801352
0.00967215
0.0113599
0.0130746
0.014816
0.0165849
0.0183814
0.0202058
0.0220566
0.0239316
0.0258283
0.0277429
0.0296705
0.0316071
0.0335502
0.0354981
0.037449
0.0394
0.0413459
0.0432811
0.0452002
0.0470992
0.048975
0.0508258
0.0526502
0.0544456
0.0562077
0.0579311
0.0596111
0.0612458
0.0628355
0.0643811
0.0658836
0.0673426
0.0687565
0.0701235
0.0714417
0.072709
0.0739237
0.0750853
0.076193
0.0772439
0.0782341
0.0791596
0.0800171
0.0808029
0.0815146
0.082151
0.0827111
0.0831928
0.0835938
0.0839135
0.0841529
0.0843129
0.0843944
0.0843989
0.0843286
0.0841853
0.0839712
0.0836894
0.0833436
0.0829373
0.0824736
0.0819561
0.0813885
0.0807719
0.0801058
0.0793915
0.0786344
0.0778437
0.077029
0.0761967
0.0753512
0.0744961
0.0736341
0.0727688
0.0719051
0.0710482
0.0702034
0.0693756
0.0685709
0.0677988
0.0670711
0.0663988
0.0657912
0.0652565
0.0648038
0.0644436
0.0641863
0.0640391
0.064001
0.0640705
0.0642249
-3.66878e-05
-7.98815e-05
-0.000211594
-0.00045634
-0.000793895
-0.00122478
-0.00175077
-0.00237079
-0.00307335
-0.00385143
-0.00469252
-0.00558646
-0.00652315
-0.00749242
-0.00848214
-0.00947758
-0.0104674
-0.011442
-0.0123951
-0.0133213
-0.0142119
-0.0150598
-0.0158588
-0.0165987
-0.0172757
-0.0178847
-0.0184269
-0.0188993
-0.0193075
-0.0196471
-0.019922
-0.0201316
-0.0202742
-0.0203526
-0.020372
-0.0203289
-0.0202201
-0.0200457
-0.0198062
-0.0195049
-0.0191464
-0.018735
-0.0182744
-0.017767
-0.0172145
-0.0166186
-0.0159803
-0.0152969
-0.0145639
-0.013779
-0.012942
-0.0120535
-0.0111144
-0.0101237
-0.0090788
-0.00797698
-0.00681859
-0.00560834
-0.00435133
-0.00305089
-0.00170973
-0.000330521
0.00108526
0.00253793
0.00402747
0.00555303
0.00711363
0.00870703
0.0103307
0.0119824
0.0136599
0.0153622
0.0170905
0.0188448
0.0206247
0.0224295
0.0242571
0.0261037
0.0279651
0.0298368
0.0317156
0.0336002
0.0354898
0.0373816
0.0392717
0.0411556
0.0430282
0.0448841
0.0467198
0.0485337
0.0503245
0.0520904
0.0538289
0.0555357
0.0572053
0.0588335
0.0604201
0.0619658
0.0634706
0.0649341
0.0663561
0.067735
0.069068
0.0703526
0.0715867
0.0727684
0.073897
0.0749726
0.075993
0.076954
0.0778507
0.0786802
0.0794401
0.0801283
0.0807437
0.0812859
0.081754
0.0821466
0.0824626
0.0827025
0.0828674
0.0829579
0.0829754
0.0829214
0.082798
0.0826072
0.082352
0.0820359
0.0816626
0.0812352
0.0807562
0.0802281
0.0796518
0.079028
0.078359
0.0776507
0.0769109
0.0761481
0.0753686
0.0745769
0.0737772
0.0729722
0.0721647
0.0713586
0.0705583
0.0697692
0.0689969
0.0682484
0.0675329
0.0668605
0.0662401
0.0656793
0.0651857
0.0647674
0.0644351
0.0641994
0.0640662
0.0640337
0.0641135
0.0643161
8.87254e-05
-4.94104e-06
-0.000181419
-0.000458863
-0.000819327
-0.00125436
-0.00176802
-0.00236136
-0.00303045
-0.00376348
-0.00455096
-0.00538617
-0.00625572
-0.00715275
-0.00806622
-0.00898611
-0.00990193
-0.010804
-0.0116869
-0.0125428
-0.0133675
-0.0141552
-0.0148982
-0.0155906
-0.0162262
-0.0168022
-0.0173152
-0.0177664
-0.0181525
-0.0184783
-0.0187442
-0.0189469
-0.0190894
-0.0191701
-0.0191909
-0.0191528
-0.0190525
-0.0188881
-0.0186601
-0.0183712
-0.018025
-0.0176269
-0.0171815
-0.0166905
-0.0161541
-0.0155731
-0.0149469
-0.0142735
-0.0135509
-0.0127778
-0.0119535
-0.0110785
-0.0101537
-0.00917816
-0.0081488
-0.00706352
-0.00592365
-0.00473353
-0.00349788
-0.00222017
-0.000903279
0.00045094
0.00184218
0.00327062
0.00473547
0.00623475
0.00776689
0.00933025
0.0109222
0.0125408
0.0141847
0.0158532
0.017546
0.0192627
0.0210023
0.0227642
0.0245474
0.0263482
0.0281615
0.0299833
0.0318116
0.0336447
0.0354814
0.0373195
0.0391549
0.0409831
0.0428
0.0446009
0.0463818
0.0481412
0.0498794
0.0515945
0.053283
0.0549408
0.0565633
0.0581473
0.0596925
0.0612001
0.0626701
0.0641011
0.0654914
0.0668394
0.0681424
0.0693974
0.0706019
0.0717545
0.072855
0.0739035
0.0748974
0.0758322
0.0767037
0.077509
0.078246
0.0789129
0.0795089
0.0800343
0.080489
0.0808722
0.0811836
0.0814231
0.0815906
0.0816862
0.0817116
0.0816696
0.0815626
0.0813924
0.081161
0.0808716
0.0805276
0.0801317
0.0796857
0.0791918
0.0786512
0.0780652
0.0774367
0.0767715
0.0760769
0.0753602
0.0746268
0.0738812
0.0731286
0.072372
0.071613
0.0708536
0.0700973
0.0693504
0.068621
0.0679162
0.0672436
0.0666107
0.0660252
0.0654951
0.0650279
0.0646315
0.0643158
0.0640926
0.0639689
0.0639431
0.0640326
0.0642655
0.000299134
0.000151121
-6.77925e-05
-0.000376821
-0.000754579
-0.00119306
-0.00169891
-0.00227012
-0.00290819
-0.00360319
-0.00434693
-0.00512961
-0.00594539
-0.006783
-0.00763469
-0.00849056
-0.00934191
-0.0101823
-0.0110037
-0.011801
-0.0125673
-0.0132988
-0.0139909
-0.0146393
-0.0152364
-0.0157818
-0.0162681
-0.0166968
-0.0170654
-0.0173754
-0.0176285
-0.0178262
-0.017965
-0.0180453
-0.018067
-0.0180292
-0.0179311
-0.0177729
-0.0175554
-0.0172797
-0.0169479
-0.0165643
-0.0161322
-0.0156537
-0.015131
-0.0145639
-0.0139502
-0.013288
-0.0125766
-0.0118153
-0.0110037
-0.0101424
-0.00923169
-0.00826982
-0.00725424
-0.00618477
-0.00506354
-0.00389361
-0.00267869
-0.00142233
-0.000127395
0.00120454
0.00257368
0.0039796
0.00542029
0.00689378
0.0083984
0.00993215
0.0114928
0.0130785
0.0146891
0.0163241
0.0179823
0.0196617
0.0213618
0.023082
0.0248207
0.0265751
0.0283411
0.030115
0.0318948
0.0336791
0.0354655
0.0372513
0.0390334
0.0408084
0.0425722
0.0443206
0.0460501
0.0477598
0.0494491
0.0511159
0.0527571
0.054369
0.0559475
0.0574904
0.0589977
0.0604703
0.061907
0.0633066
0.0646674
0.0659867
0.0672604
0.0684859
0.0696618
0.070787
0.0718612
0.072884
0.0738531
0.0747637
0.075611
0.0763931
0.0771085
0.0777553
0.0783326
0.0788413
0.0792828
0.0796568
0.0799627
0.0802
0.0803683
0.0804675
0.080499
0.0804663
0.0803729
0.0802212
0.0800123
0.079748
0.0794308
0.0790632
0.0786475
0.0781856
0.0776793
0.0771298
0.0765403
0.075916
0.0752634
0.074589
0.0738985
0.0731966
0.0724879
0.0717752
0.0710588
0.0703398
0.0696221
0.0689124
0.0682198
0.0675515
0.0669127
0.0663093
0.065749
0.0652405
0.0647916
0.0644096
0.0641032
0.0638835
0.0637589
0.0637301
0.0638169
0.0640518
0.00058763
0.000381167
0.000122835
-0.0002123
-0.000603916
-0.00104847
-0.00154687
-0.00210329
-0.0027151
-0.00337791
-0.004085
-0.00482579
-0.00559519
-0.00638498
-0.00718585
-0.00799097
-0.00879142
-0.00957856
-0.0103481
-0.0110944
-0.0118112
-0.0124964
-0.0131459
-0.0137534
-0.0143175
-0.014831
-0.015293
-0.0156993
-0.0160505
-0.0163455
-0.0165857
-0.0167756
-0.0169088
-0.0169858
-0.0170062
-0.0169668
-0.0168682
-0.0167122
-0.0165005
-0.0162349
-0.0159169
-0.0155476
-0.0151281
-0.0146607
-0.0141484
-0.0135918
-0.012989
-0.0123386
-0.0116393
-0.01089
-0.0100911
-0.00924383
-0.00834696
-0.00739796
-0.00639573
-0.00534183
-0.00423883
-0.00308876
-0.00189451
-0.00065959
0.000614101
0.00192567
0.00327421
0.00465819
0.00607484
0.0075221
0.00899887
0.0105031
0.0120328
0.0135872
0.0151658
0.0167676
0.0183909
0.0200336
0.0216949
0.0233746
0.0250708
0.0267804
0.0285005
0.0302288
0.0319629
0.0337002
0.0354383
0.0371748
0.0389068
0.0406312
0.042345
0.0440444
0.0457263
0.0473899
0.0490344
0.0506568
0.0522538
0.0538228
0.0553609
0.0568661
0.0583385
0.0597781
0.0611835
0.062553
0.0638854
0.065177
0.066423
0.0676205
0.068769
0.0698684
0.070918
0.0719168
0.0728626
0.0737504
0.0745758
0.0753365
0.0760316
0.0766595
0.0772196
0.0777135
0.0781429
0.078508
0.0788079
0.0790418
0.0792096
0.0793111
0.0793479
0.0793238
0.0792428
0.0791071
0.0789173
0.0786747
0.0783814
0.0780397
0.0776513
0.0772184
0.0767435
0.0762285
0.0756753
0.0750881
0.0744727
0.073836
0.0731848
0.0725231
0.071854
0.0711792
0.0704991
0.0698151
0.0691316
0.0684549
0.0677933
0.0671534
0.0665397
0.0659577
0.0654156
0.0649219
0.0644844
0.0641098
0.0638055
0.0635806
0.0634442
0.0634004
0.0634692
0.0636796
0.000942354
0.000679892
0.000382066
2.28243e-05
-0.00038469
-0.00083348
-0.00132917
-0.001874
-0.00246692
-0.00310536
-0.00378083
-0.00448812
-0.00521953
-0.0059698
-0.00673065
-0.00749323
-0.0082494
-0.00899224
-0.00971711
-0.0104182
-0.0110949
-0.0117407
-0.0123534
-0.0129295
-0.0134634
-0.0139493
-0.0143872
-0.0147728
-0.0151068
-0.0153887
-0.0156185
-0.015797
-0.0159242
-0.0159961
-0.0160114
-0.0159701
-0.0158716
-0.0157174
-0.0155099
-0.0152513
-0.0149429
-0.0145843
-0.0141756
-0.0137185
-0.0132154
-0.0126671
-0.0120737
-0.0114343
-0.0107465
-0.010009
-0.00922269
-0.00838838
-0.00750413
-0.00656758
-0.00557911
-0.00454082
-0.00345504
-0.0023239
-0.00114981
6.45711e-05
0.00131798
0.00260997
0.0039385
0.00530067
0.00669365
0.00811518
0.00956391
0.0110387
0.0125384
0.0140629
0.0156113
0.0171815
0.0187707
0.0203774
0.0220013
0.0236419
0.0252972
0.0269648
0.0286424
0.030328
0.0320189
0.0337114
0.0354032
0.0370929
0.0387779
0.0404552
0.0421223
0.0437764
0.0454142
0.047035
0.0486378
0.0502193
0.0517758
0.0533051
0.0548058
0.0562763
0.0577161
0.0591246
0.0605003
0.0618417
0.063147
0.0644118
0.0656311
0.0668024
0.0679259
0.0690013
0.0700277
0.0710042
0.0719283
0.072795
0.0735999
0.0743413
0.0750183
0.0756293
0.076174
0.0766545
0.0770736
0.0774312
0.0777254
0.0779555
0.0781218
0.0782251
0.0782673
0.0782518
0.0781821
0.07806
0.077886
0.0776615
0.0773888
0.0770701
0.0767066
0.0763
0.075853
0.075368
0.0748467
0.074292
0.0737096
0.0731065
0.0724899
0.0718633
0.071228
0.0705852
0.0699357
0.0692819
0.0686279
0.0679793
0.0673423
0.0667231
0.0661269
0.0655601
0.0650309
0.0645468
0.0641144
0.0637399
0.0634303
0.0631929
0.0630363
0.0629667
0.0630023
0.063165
0.00135331
0.00103536
0.000696882
0.000314719
-0.000106825
-0.000564031
-0.00106043
-0.00159699
-0.00217568
-0.0027931
-0.0034454
-0.0041255
-0.00482744
-0.00554543
-0.00627169
-0.00699902
-0.00771858
-0.00842194
-0.00910675
-0.00977079
-0.0104098
-0.0110228
-0.0116062
-0.0121542
-0.0126614
-0.013126
-0.0135403
-0.0139075
-0.0142266
-0.0144955
-0.0147169
-0.0148867
-0.0150063
-0.015072
-0.0150817
-0.0150366
-0.0149375
-0.0147857
-0.0145827
-0.0143301
-0.0140281
-0.0136761
-0.0132749
-0.0128259
-0.0123305
-0.0117898
-0.011205
-0.0105754
-0.00989828
-0.00917247
-0.00839837
-0.0075756
-0.00670247
-0.00577779
-0.004803
-0.00378034
-0.00271139
-0.00159838
-0.00044375
0.000751276
0.00198597
0.00325877
0.00456689
0.00590707
0.0072764
0.00867255
0.0100939
0.0115398
0.0130108
0.0145067
0.016026
0.0175653
0.0191219
0.0206943
0.0222824
0.0238851
0.0255014
0.0271296
0.0287676
0.0304131
0.0320631
0.0337134
0.0353613
0.0370064
0.0386471
0.0402806
0.0419046
0.0435165
0.0451139
0.0466953
0.048259
0.0498019
0.051321
0.0528146
0.0542808
0.0557181
0.0571268
0.058506
0.0598539
0.0611684
0.0624478
0.0636874
0.0648815
0.0660279
0.067128
0.0681816
0.069187
0.0701424
0.0710458
0.0718929
0.0726794
0.0734033
0.0740639
0.07466
0.0751917
0.0756614
0.0760717
0.0764225
0.0767118
0.076939
0.0771047
0.0772103
0.0772578
0.0772502
0.0771907
0.0770801
0.0769189
0.0767093
0.0764544
0.0761561
0.0758149
0.0754313
0.0750079
0.074548
0.0740535
0.0735271
0.0729738
0.0724004
0.0718133
0.0712158
0.0706083
0.0699921
0.0693689
0.0687406
0.0681107
0.0674835
0.0668646
0.0662603
0.0656767
0.0651207
0.0645997
0.0641201
0.063687
0.0633064
0.0629846
0.0627283
0.062545
0.0624406
0.062429
0.0625254
0.001808
0.00143581
0.00106079
0.000651791
0.000214213
-0.000250164
-0.000748951
-0.00128362
-0.00185046
-0.00245334
-0.00308605
-0.00374367
-0.00442289
-0.00511505
-0.00581257
-0.00651057
-0.00719741
-0.0078679
-0.00851894
-0.00914954
-0.00975764
-0.0103418
-0.0108976
-0.0114206
-0.0119063
-0.0123492
-0.0127446
-0.0130954
-0.0134015
-0.0136602
-0.0138714
-0.0140352
-0.0141479
-0.0142075
-0.014213
-0.0141644
-0.0140636
-0.0139132
-0.0137139
-0.0134661
-0.013169
-0.0128216
-0.0124252
-0.0119818
-0.0114926
-0.0109594
-0.0103829
-0.0097619
-0.00909469
-0.0083803
-0.00761785
-0.00680548
-0.00594244
-0.00502952
-0.004068
-0.00305994
-0.00200739
-0.000912069
0.000224304
0.00140108
0.00261792
0.00387207
0.00515948
0.00647736
0.00782312
0.00919386
0.0105883
0.0120071
0.013451
0.0149193
0.0164098
0.0179192
0.0194443
0.0209839
0.0225377
0.0241047
0.025684
0.027275
0.0288759
0.0304839
0.0320947
0.0337044
0.0353115
0.0369154
0.0385147
0.0401072
0.0416915
0.0432651
0.0448252
0.0463698
0.0478973
0.0494045
0.0508888
0.0523489
0.0537832
0.0551899
0.0565687
0.0579197
0.0592412
0.0605309
0.0617859
0.0630011
0.0641713
0.065295
0.0663734
0.0674065
0.0683921
0.0693281
0.0702125
0.0710415
0.0718109
0.072519
0.0731653
0.0737488
0.0742698
0.0747307
0.0751342
0.0754797
0.0757652
0.0759903
0.0761567
0.076266
0.0763194
0.0763191
0.0762675
0.076166
0.0760159
0.0758196
0.0755801
0.0752989
0.074976
0.0746113
0.0742074
0.0737682
0.0732959
0.0727934
0.0722655
0.0717178
0.0711551
0.0705803
0.0699946
0.0694001
0.0687988
0.0681911
0.0675788
0.0669661
0.0663597
0.0657662
0.0651919
0.0646427
0.064125
0.0636445
0.0632058
0.0628137
0.0624744
0.0621937
0.0619773
0.0618302
0.0617608
0.061778
0.00229831
0.00187506
0.00146354
0.00102981
0.000574213
9.98608e-05
-0.000403776
-0.000936633
-0.00150065
-0.00209119
-0.00270925
-0.00335124
-0.00400985
-0.00468006
-0.00535417
-0.00602445
-0.00668439
-0.00732742
-0.00795043
-0.00855345
-0.00913597
-0.00969511
-0.010227
-0.0107274
-0.0111932
-0.0116159
-0.0119964
-0.0123324
-0.0126256
-0.0128765
-0.0130789
-0.013235
-0.0133415
-0.0133963
-0.0133986
-0.0133481
-0.0132466
-0.0130965
-0.0128994
-0.0126546
-0.0123608
-0.0120172
-0.0116248
-0.0111856
-0.0107021
-0.0101762
-0.00960759
-0.00899495
-0.00833736
-0.0076334
-0.00688112
-0.00607863
-0.00522568
-0.00432415
-0.00337553
-0.00238126
-0.00134406
-0.000265609
0.000853957
0.00201396
0.00321288
0.00444805
0.00571536
0.00701117
0.00833298
0.00967867
0.0110473
0.01244
0.0138582
0.0153003
0.0167628
0.0182426
0.0197375
0.0212462
0.022767
0.0242995
0.0258444
0.0274013
0.0289672
0.0305389
0.0321126
0.0336846
0.0352535
0.0368194
0.0383812
0.0399368
0.0414847
0.0430229
0.0445485
0.0460595
0.0475534
0.0490273
0.0504791
0.0519081
0.0533125
0.0546901
0.0560409
0.0573657
0.0586626
0.0599286
0.0611601
0.0623523
0.0635001
0.0646024
0.0656607
0.0666749
0.0676421
0.06856
0.0694266
0.0702389
0.070993
0.071687
0.0723205
0.0728933
0.073406
0.0738609
0.0742597
0.0746015
0.0748843
0.0751087
0.0752773
0.0753914
0.0754508
0.0754564
0.0754111
0.0753174
0.0751772
0.0749928
0.0747664
0.0744988
0.0741896
0.0738392
0.0734505
0.0730278
0.0725741
0.0720918
0.0715849
0.0710578
0.0705141
0.0699566
0.0693879
0.0688104
0.0682256
0.0676326
0.067032
0.066429
0.0658312
0.0652456
0.0646771
0.0641301
0.0636104
0.0631239
0.0626749
0.0622675
0.0619064
0.061596
0.0613406
0.0611445
0.0610106
0.0609412
0.00281619
0.00234633
0.00190043
0.00144413
0.000968645
0.000480804
-2.77324e-05
-0.000562769
-0.00112471
-0.00171091
-0.00232086
-0.00294829
-0.00359229
-0.00424358
-0.00489544
-0.00554295
-0.00617953
-0.00679774
-0.00739783
-0.0079801
-0.00854205
-0.00908076
-0.00959208
-0.0100727
-0.0105191
-0.0109266
-0.011292
-0.0116158
-0.0118984
-0.0121393
-0.0123351
-0.0124838
-0.0125841
-0.0126349
-0.0126344
-0.0125828
-0.0124816
-0.0123325
-0.0121365
-0.0118932
-0.0116015
-0.0112611
-0.0108724
-0.0104377
-0.00996
-0.00944108
-0.00888022
-0.00827585
-0.00762739
-0.00693281
-0.00618917
-0.00539575
-0.0045531
-0.00366246
-0.00272589
-0.00174527
-0.000722431
0.00034114
0.00144513
0.00258908
0.0037707
0.00498655
0.00623337
0.00750783
0.00880644
0.0101273
0.0114713
0.01284
0.0142334
0.0156494
0.0170849
0.0185369
0.0200029
0.0214814
0.022971
0.0244714
0.025984
0.0275087
0.029042
0.0305796
0.0321181
0.0336551
0.0351893
0.0367207
0.0382486
0.0397711
0.0412865
0.0427925
0.0442862
0.0457656
0.0472284
0.0486715
0.0500931
0.0514929
0.0528692
0.0542195
0.0555441
0.0568442
0.0581183
0.0593619
0.0605707
0.0617403
0.0628668
0.0639494
0.0649893
0.0659857
0.0669356
0.0678365
0.068687
0.0694842
0.0702243
0.0709054
0.0715279
0.0720922
0.072599
0.0730499
0.0734458
0.0737856
0.0740677
0.074293
0.0744645
0.0745829
0.0746476
0.0746586
0.074619
0.0745322
0.0744006
0.0742262
0.0740103
0.0737527
0.0734529
0.0731124
0.072735
0.0723256
0.0718873
0.0714214
0.0709305
0.0704186
0.0698891
0.0693453
0.0687901
0.0682252
0.0676508
0.0670665
0.0664735
0.0658777
0.0652865
0.0647057
0.0641386
0.0635887
0.0630619
0.0625646
0.0621013
0.0616752
0.0612887
0.0609438
0.0606444
0.0603953
0.060194
0.0600345
0.00335624
0.00284378
0.00236714
0.00188863
0.00139578
0.000892672
0.000374142
-0.000166108
-0.000728528
-0.00131515
-0.00191909
-0.00254
-0.00317261
-0.00380834
-0.00444201
-0.00506904
-0.00568409
-0.00628296
-0.00686451
-0.00742848
-0.00797412
-0.00849715
-0.00899137
-0.00945423
-0.00988298
-0.0102778
-0.0106304
-0.0109427
-0.0112166
-0.0114475
-0.0116366
-0.0117793
-0.0118746
-0.0119218
-0.0119192
-0.0118667
-0.0117658
-0.0116179
-0.0114231
-0.0111808
-0.0108909
-0.0105532
-0.0101682
-0.00973877
-0.00926757
-0.00875517
-0.00820139
-0.00760524
-0.00696497
-0.00627827
-0.00554267
-0.00475775
-0.00392492
-0.00304514
-0.00211987
-0.00115185
-0.00014287
0.000907026
0.00199726
0.00312561
0.00428961
0.00548666
0.00671346
0.00796637
0.00924233
0.0105402
0.0118612
0.013207
0.0145766
0.0159675
0.0173771
0.0188029
0.0202417
0.0216916
0.0231518
0.0246227
0.0261055
0.0276
0.0291024
0.0306082
0.0321146
0.0336195
0.0351225
0.0366234
0.038121
0.0396136
0.0410996
0.0425765
0.0440408
0.0454904
0.0469236
0.0483381
0.049732
0.0511045
0.0524539
0.0537786
0.0550791
0.0563568
0.057609
0.0588306
0.0600171
0.061165
0.0622714
0.0633354
0.064358
0.0653378
0.0662716
0.0671571
0.0679928
0.0687761
0.0695031
0.0701726
0.0707859
0.0713439
0.0718467
0.0722951
0.0726896
0.073029
0.0733115
0.0735385
0.0737125
0.0738345
0.0739033
0.0739192
0.073885
0.0738046
0.0736805
0.0735138
0.0733051
0.073054
0.0727603
0.0724266
0.0720579
0.0716591
0.0712329
0.0707792
0.0702996
0.0697984
0.0692798
0.0687473
0.0682029
0.0676465
0.0670777
0.0664976
0.0659095
0.0653193
0.0647327
0.0641528
0.0635821
0.0630245
0.0624867
0.0619752
0.0614944
0.0610457
0.0606293
0.0602457
0.0598991
0.0595957
0.0593265
0.0590758
0.00391608
0.00336494
0.00286049
0.00236309
0.00185126
0.00133104
0.000799513
0.000250297
-0.000318635
-0.000906296
-0.00151015
-0.0021266
-0.00275029
-0.00337564
-0.00399502
-0.00460519
-0.00520331
-0.00578593
-0.00635172
-0.00690105
-0.00743354
-0.00794336
-0.00842383
-0.00887123
-0.00928644
-0.00966702
-0.0100096
-0.0103125
-0.0105766
-0.0108002
-0.0109819
-0.0111195
-0.0112116
-0.0112559
-0.0112517
-0.0111988
-0.0110982
-0.0109511
-0.0107573
-0.0105166
-0.0102286
-0.00989359
-0.00951278
-0.00908907
-0.00862454
-0.00811873
-0.00757145
-0.00698269
-0.00634963
-0.00566926
-0.00494115
-0.00416537
-0.00334194
-0.00247232
-0.00155868
-0.000602801
0.00039407
0.00143124
0.00250767
0.00362077
0.00476775
0.00594634
0.00715348
0.0083855
0.00963992
0.0109165
0.0122164
0.0135405
0.0148876
0.0162549
0.0176403
0.0190416
0.0204551
0.0218786
0.0233117
0.0247556
0.0262116
0.0276785
0.0291518
0.030628
0.0321053
0.0335821
0.0350573
0.0365307
0.0380012
0.0394671
0.0409266
0.0423764
0.0438131
0.0452347
0.0466403
0.0480281
0.0493959
0.0507428
0.0520676
0.0533688
0.0546473
0.0559037
0.0571348
0.0583348
0.0594997
0.0606269
0.0617142
0.0627608
0.063767
0.0647312
0.0656501
0.0665213
0.0673435
0.0681138
0.0688288
0.0694878
0.0700931
0.070646
0.0711462
0.0715935
0.0719876
0.0723269
0.07261
0.072838
0.0730137
0.073138
0.07321
0.0732299
0.0732007
0.0731261
0.0730082
0.0728471
0.0726428
0.0723954
0.0721056
0.0717772
0.0714157
0.0710252
0.0706071
0.0701614
0.0696893
0.0691961
0.0686868
0.0681636
0.0676269
0.0670753
0.0665089
0.065931
0.0653465
0.06476
0.0641742
0.0635905
0.0630117
0.0624436
0.0618927
0.0613647
0.0608627
0.0603867
0.0599355
0.0595098
0.0591148
0.0587572
0.0584195
0.0580772
0.00449557
0.00390997
0.00337812
0.00286174
0.00233298
0.00179389
0.00124565
0.000683507
0.000105245
-0.000487296
-0.00109241
-0.00170649
-0.00232623
-0.00294384
-0.00355225
-0.00415031
-0.00473618
-0.00530732
-0.00586192
-0.00640014
-0.00692104
-0.00742003
-0.00788983
-0.00832474
-0.00872823
-0.00909633
-0.00942923
-0.00972459
-0.00997981
-0.0101975
-0.0103729
-0.010506
-0.0105953
-0.0106376
-0.0106322
-0.0105792
-0.0104791
-0.0103324
-0.0101393
-0.00990012
-0.0096144
-0.00928212
-0.00890608
-0.00848859
-0.00803004
-0.00753053
-0.00698983
-0.0064069
-0.0057795
-0.00510534
-0.00438431
-0.00361711
-0.00280355
-0.00194447
-0.00104196
-9.74687e-05
0.000888112
0.00191342
0.00297635
0.00407421
0.00520455
0.00636532
0.00755362
0.00876586
0.0100002
0.0112574
0.0125381
0.0138419
0.0151673
0.0165127
0.0178764
0.0192553
0.020645
0.0220439
0.0234529
0.0248731
0.0263045
0.0277455
0.0291923
0.030642
0.0320933
0.0335447
0.0349951
0.036444
0.0378904
0.039332
0.0407666
0.0421912
0.043602
0.0449974
0.0463772
0.0477401
0.0490839
0.0504073
0.0517094
0.0529895
0.054248
0.0554843
0.0566946
0.0578733
0.0590174
0.0601252
0.0611948
0.062225
0.0632157
0.0641653
0.0650703
0.0659284
0.066738
0.0674963
0.0682003
0.0688501
0.0694483
0.0699968
0.070495
0.0709417
0.0713356
0.0716746
0.0719573
0.0721853
0.0723616
0.0724874
0.0725616
0.0725846
0.0725594
0.0724896
0.0723764
0.072219
0.0720171
0.0717719
0.0714854
0.0711617
0.0708059
0.0704205
0.0700066
0.0695649
0.0690982
0.068612
0.0681109
0.067595
0.0670624
0.0665124
0.065947
0.0653713
0.0647893
0.064203
0.0636131
0.0630212
0.062432
0.0618522
0.0612869
0.0607397
0.0602119
0.0597033
0.0592133
0.0587438
0.0582999
0.0578872
0.0574796
0.0570458
0.00509459
0.00447674
0.00391973
0.00338391
0.00283469
0.0022779
0.00170977
0.00113175
0.000541849
-5.99412e-05
-0.000668163
-0.00128259
-0.00190014
-0.00251263
-0.00311454
-0.0037049
-0.00428249
-0.00484659
-0.00539469
-0.00592555
-0.0064377
-0.00692773
-0.00738819
-0.00781479
-0.00820695
-0.00856665
-0.00889077
-0.00917867
-0.00942871
-0.00964049
-0.00981193
-0.00994188
-0.0100278
-0.010068
-0.0100617
-0.0100085
-0.00990844
-0.00976206
-0.0095698
-0.00933154
-0.00904751
-0.00871878
-0.00834776
-0.0079361
-0.00748337
-0.00698947
-0.00645447
-0.0058765
-0.00525344
-0.00458488
-0.00387123
-0.00311231
-0.00230802
-0.00145959
-0.000568313
0.000365721
0.00134137
0.00235544
0.00340484
0.00448786
0.00560273
0.00674667
0.00791651
0.00911013
0.0103269
0.0115667
0.0128289
0.0141132
0.0154188
0.0167443
0.0180877
0.0194454
0.0208133
0.0221902
0.0235774
0.0249758
0.0263848
0.0278021
0.0292248
0.0306507
0.0320789
0.0335076
0.0349354
0.036362
0.0377864
0.0392059
0.0406175
0.0420181
0.0434044
0.0447755
0.0461319
0.0474722
0.0487941
0.0500962
0.0513781
0.0526393
0.0538791
0.055096
0.056286
0.0574446
0.0585693
0.0596592
0.0607123
0.0617271
0.0627032
0.0636391
0.0645314
0.0653773
0.0661752
0.0669227
0.0676171
0.0682587
0.0688507
0.0693952
0.0698918
0.070338
0.0707311
0.0710688
0.0713501
0.0715772
0.0717536
0.07188
0.0719552
0.0719801
0.0719579
0.0718917
0.0717816
0.0716262
0.0714254
0.0711819
0.0708989
0.0705797
0.0702273
0.0698436
0.0694302
0.0689902
0.0685281
0.0680487
0.0675542
0.0670428
0.0665116
0.0659615
0.0653967
0.0648222
0.0642399
0.0636494
0.063051
0.0624483
0.0618477
0.0612553
0.0606736
0.0601032
0.059545
0.0589999
0.0584691
0.0579548
0.0574608
0.056991
0.0565122
0.0559877
0.00571183
0.00506589
0.00448332
0.00392741
0.00335689
0.00277712
0.00218922
0.00159324
0.000986896
0.000375327
-0.000240031
-0.000857654
-0.0014753
-0.00208688
-0.00268639
-0.00327161
-0.00384409
-0.00440471
-0.00495063
-0.0054777
-0.00598416
-0.00646729
-0.00692025
-0.00733978
-0.0077233
-0.00807575
-0.00839417
-0.00867582
-0.00892244
-0.00912967
-0.00929832
-0.00942575
-0.0095089
-0.0095471
-0.00953924
-0.0094853
-0.00938505
-0.00923867
-0.00904706
-0.00880965
-0.00852713
-0.00820237
-0.00783665
-0.00743005
-0.00698301
-0.00649498
-0.00596423
-0.00538957
-0.00477097
-0.00410826
-0.00340108
-0.00264979
-0.00185512
-0.00101715
-0.000135572
0.000789309
0.0017551
0.00275804
0.0037951
0.00486448
0.00596434
0.0070921
0.00824517
0.00942206
0.0106226
0.0118461
0.0130911
0.014357
0.0156442
0.0169513
0.0182757
0.0196134
0.0209609
0.0223181
0.0236861
0.0250647
0.0264526
0.0278482
0.0292494
0.0306545
0.0320618
0.0334695
0.0348765
0.0362831
0.0376876
0.0390864
0.0404761
0.0418541
0.0432181
0.0445674
0.0459025
0.0472226
0.0485252
0.0498087
0.0510728
0.0523166
0.0535387
0.054737
0.0559081
0.057048
0.058155
0.0592285
0.0602666
0.0612672
0.0622296
0.0631524
0.0640329
0.064868
0.0656557
0.0663934
0.0670792
0.0677137
0.0683003
0.0688416
0.0693362
0.069781
0.0701723
0.0705079
0.0707875
0.0710135
0.0711889
0.0713146
0.0713897
0.0714152
0.0713949
0.071331
0.0712226
0.071068
0.070868
0.0706266
0.0703473
0.0700314
0.0696801
0.0692955
0.0688811
0.0684426
0.067985
0.0675111
0.0670207
0.0665107
0.0659792
0.0654284
0.0648631
0.0642866
0.0636992
0.0630999
0.0624904
0.0618757
0.0612624
0.0606551
0.0600536
0.0594566
0.058865
0.0582816
0.0577089
0.0571485
0.0566026
0.0560738
0.0555239
0.054911
0.00634873
0.00567413
0.00506645
0.00448961
0.00389735
0.00329217
0.00268264
0.00206654
0.00144456
0.000818306
0.000191667
-0.00043247
-0.00105486
-0.00166966
-0.00227087
-0.00285612
-0.00342773
-0.00398682
-0.00453239
-0.00505913
-0.00556264
-0.00603994
-0.00648705
-0.00689918
-0.00727831
-0.00762399
-0.00793741
-0.0082161
-0.00845926
-0.00866417
-0.00883021
-0.00895459
-0.00903543
-0.00907183
-0.00906239
-0.00900696
-0.00890633
-0.00876016
-0.00856842
-0.00833195
-0.00805215
-0.00773121
-0.00737053
-0.00696966
-0.00652796
-0.00604464
-0.00551784
-0.00494647
-0.00433152
-0.00367393
-0.00297334
-0.00222985
-0.00144398
-0.000615181
0.000257781
0.00117431
0.00213088
0.00312321
0.00414862
0.00520535
0.0062911
0.0074036
0.00854142
0.00970365
0.0108894
0.0120972
0.0133256
0.0145749
0.0158452
0.0171349
0.0184409
0.0197598
0.0210891
0.0224287
0.023779
0.0251391
0.026508
0.0278845
0.0292668
0.0306529
0.032041
0.0334295
0.034818
0.036206
0.0375919
0.0389714
0.0403408
0.041698
0.0430418
0.0443717
0.0456883
0.0469908
0.0482766
0.0495439
0.0507921
0.0520199
0.0532253
0.0544064
0.0555601
0.0566832
0.0577744
0.0588335
0.0598583
0.0608459
0.0617951
0.0627056
0.0635753
0.0644011
0.06518
0.0659092
0.0665872
0.0672154
0.0677976
0.0683356
0.0688275
0.0692694
0.069658
0.0699914
0.0702695
0.0704939
0.0706673
0.0707906
0.0708641
0.0708893
0.0708697
0.0708068
0.070699
0.070545
0.0703465
0.0701077
0.0698315
0.0695174
0.0691656
0.0687797
0.0683655
0.0679292
0.0674754
0.0670045
0.0665148
0.0660038
0.0654705
0.0649178
0.0643492
0.0637663
0.0631688
0.0625573
0.0619347
0.0613065
0.0606783
0.0600526
0.0594276
0.0588013
0.0581749
0.0575525
0.0569369
0.0563287
0.0557292
0.0551412
0.0545216
0.0538233
0.00700435
0.00629652
0.00566371
0.00506532
0.0044496
0.00382086
0.0031872
0.00255015
0.00190958
0.00126637
0.000626408
-9.55206e-06
-0.000641008
-0.00126366
-0.00187165
-0.00246203
-0.00303627
-0.00359706
-0.00414403
-0.00467171
-0.00517367
-0.00564676
-0.00608876
-0.00649528
-0.00686987
-0.00721191
-0.00752146
-0.0077983
-0.00803838
-0.00824207
-0.00840559
-0.00852694
-0.00860548
-0.00863951
-0.00862847
-0.008572
-0.00847073
-0.00832478
-0.00813301
-0.00789719
-0.0076208
-0.00730458
-0.00694835
-0.00655273
-0.00611679
-0.00563781
-0.00511396
-0.00454565
-0.00393441
-0.00328124
-0.00258644
-0.00185047
-0.00107282
-0.000251764
0.000613851
0.00152252
0.00247031
0.00345293
0.00446748
0.00551206