/*--------------------------------*- C++ -*----------------------------------*\
  =========                 |
  \\      /  F ield         | OpenFOAM: The Open Source CFD Toolbox
   \\    /   O peration     | Website:  https://openfoam.org
    \\  /    A nd           | Version:  7
     \\/     M anipulation  |
\*---------------------------------------------------------------------------*/
FoamFile
{
    version     2.0;
    format      ascii;
    class       surfaceScalarField;
    location    "0.05";
    object      phi;
}
// * * * * * * * * * * * * * * * * * * * * * * * * * * * * * * * * * * * * * //

dimensions      [0 3 -1 0 0 0 0];

internalField   nonuniform List<scalar> 
50880
(
7.22481e-12
-7.20457e-12
3.93943e-11
-3.2171e-11
9.13386e-11
-5.19421e-11
1.53206e-10
-6.18632e-11
2.1656e-10
-6.33563e-11
2.75536e-10
-5.8979e-11
3.25892e-10
-5.03545e-11
3.65081e-10
-3.91945e-11
3.90499e-10
-2.5417e-11
4.00701e-10
-1.02051e-11
3.94439e-10
6.26412e-12
3.70429e-10
2.40086e-11
3.27961e-10
4.24672e-11
2.66439e-10
6.1522e-11
1.85766e-10
8.06729e-11
8.61546e-11
9.96097e-11
-3.18928e-11
1.18047e-10
-1.67655e-10
1.35761e-10
-3.2019e-10
1.52532e-10
-4.88328e-10
1.68141e-10
-6.7098e-10
1.82656e-10
-8.67037e-10
1.96058e-10
-1.07523e-09
2.08187e-10
-1.29425e-09
2.19031e-10
-1.52256e-09
2.28303e-10
-1.75924e-09
2.3668e-10
-2.00291e-09
2.4367e-10
-2.25281e-09
2.49898e-10
-2.50759e-09
2.54785e-10
-2.76681e-09
2.59218e-10
-3.02936e-09
2.62561e-10
-3.29458e-09
2.65215e-10
-3.5616e-09
2.67024e-10
-3.82996e-09
2.68358e-10
-4.09915e-09
2.69185e-10
-4.36851e-09
2.69359e-10
-4.63735e-09
2.68841e-10
-4.90534e-09
2.67994e-10
-5.17209e-09
2.66752e-10
-5.43701e-09
2.64921e-10
-5.6998e-09
2.62785e-10
-5.96035e-09
2.60547e-10
-6.21855e-09
2.58199e-10
-6.47444e-09
2.55893e-10
-6.72821e-09
2.5377e-10
-6.97987e-09
2.51664e-10
-7.22933e-09
2.49457e-10
-7.47646e-09
2.47129e-10
-7.72107e-09
2.44609e-10
-7.96284e-09
2.4177e-10
-8.20144e-09
2.38606e-10
-8.43658e-09
2.35135e-10
-8.6678e-09
2.31228e-10
-8.89463e-09
2.26828e-10
-9.1166e-09
2.21966e-10
-9.33327e-09
2.1667e-10
-9.54418e-09
2.10906e-10
-9.74881e-09
2.04639e-10
-9.9468e-09
1.97982e-10
-1.01379e-08
1.91112e-10
-1.03221e-08
1.84144e-10
-1.04992e-08
1.77118e-10
-1.06692e-08
1.70054e-10
-1.08322e-08
1.62949e-10
-1.09879e-08
1.55716e-10
-1.11362e-08
1.48312e-10
-1.1277e-08
1.40813e-10
-1.14103e-08
1.33296e-10
-1.15361e-08
1.25778e-10
-1.16543e-08
1.18219e-10
-1.17649e-08
1.10554e-10
-1.18676e-08
1.02696e-10
-1.19621e-08
9.45707e-11
-1.20483e-08
8.61448e-11
-1.21256e-08
7.7366e-11
-1.21938e-08
6.81858e-11
-1.22524e-08
5.8596e-11
-1.2301e-08
4.85575e-11
-1.2339e-08
3.80416e-11
-1.23662e-08
2.71324e-11
-1.23821e-08
1.5965e-11
-1.23867e-08
4.59959e-12
-1.23798e-08
-6.955e-12
-1.2361e-08
-1.87496e-11
-1.23302e-08
-3.08204e-11
-1.22871e-08
-4.30914e-11
-1.22317e-08
-5.54279e-11
-1.2164e-08
-6.77244e-11
-1.20841e-08
-7.98771e-11
-1.19923e-08
-9.17744e-11
-1.18889e-08
-1.0338e-10
-1.17742e-08
-1.14731e-10
-1.16484e-08
-1.25828e-10
-1.15118e-08
-1.36587e-10
-1.13649e-08
-1.46915e-10
-1.12081e-08
-1.56734e-10
-1.10422e-08
-1.65969e-10
-1.08675e-08
-1.74619e-10
-1.06847e-08
-1.82803e-10
-1.04941e-08
-1.9067e-10
-1.02958e-08
-1.98287e-10
-1.00901e-08
-2.05663e-10
-9.87728e-09
-2.12833e-10
-9.65744e-09
-2.1984e-10
-9.43075e-09
-2.26697e-10
-9.19732e-09
-2.33431e-10
-8.9572e-09
-2.4011e-10
-8.71044e-09
-2.4676e-10
-8.45712e-09
-2.53319e-10
-8.19742e-09
-2.59701e-10
-7.9316e-09
-2.65819e-10
-7.66007e-09
-2.71535e-10
-7.3834e-09
-2.76671e-10
-7.10227e-09
-2.81125e-10
-6.81739e-09
-2.84879e-10
-6.5295e-09
-2.87894e-10
-6.23943e-09
-2.90066e-10
-5.9481e-09
-2.91328e-10
-5.6564e-09
-2.917e-10
-5.3652e-09
-2.91198e-10
-5.07541e-09
-2.89793e-10
-4.78791e-09
-2.87506e-10
-4.50342e-09
-2.84482e-10
-4.22254e-09
-2.80886e-10
-3.94576e-09
-2.76778e-10
-3.67362e-09
-2.72138e-10
-3.40664e-09
-2.66979e-10
-3.14531e-09
-2.61337e-10
-2.89011e-09
-2.55199e-10
-2.64157e-09
-2.48537e-10
-2.40016e-09
-2.41411e-10
-2.16625e-09
-2.33909e-10
-1.94025e-09
-2.26002e-10
-1.72272e-09
-2.17529e-10
-1.51439e-09
-2.08329e-10
-1.31599e-09
-1.98399e-10
-1.12807e-09
-1.87924e-10
-9.51e-10
-1.7707e-10
-7.8509e-10
-1.65911e-10
-6.30572e-10
-1.54518e-10
-4.87692e-10
-1.4288e-10
-3.56772e-10
-1.30921e-10
-2.38188e-10
-1.18584e-10
-1.32427e-10
-1.05762e-10
-3.99666e-11
-9.24601e-11
3.88721e-11
-7.8838e-11
1.03805e-10
-6.49325e-11
1.54612e-10
-5.08073e-11
1.91217e-10
-3.66052e-11
2.1367e-10
-2.24536e-11
2.22324e-10
-8.65456e-12
2.1784e-10
4.4846e-12
2.01196e-10
1.6645e-11
1.73932e-10
2.72631e-11
1.38323e-10
3.56077e-11
9.75824e-11
4.07409e-11
5.61978e-11
4.13848e-11
2.06663e-11
3.55322e-11
-7.34634e-14
2.07399e-11
-7.36372e-14
2.11298e-11
-2.83379e-11
8.22521e-11
-9.32881e-11
1.76401e-10
-1.46097e-10
2.85422e-10
-1.70883e-10
3.93152e-10
-1.71086e-10
4.87151e-10
-1.52978e-10
5.57679e-10
-1.20882e-10
5.97699e-10
-7.92149e-11
6.02366e-10
-3.0087e-11
5.67864e-10
2.42982e-11
4.91263e-10
8.28659e-11
3.71006e-10
1.44269e-10
2.05686e-10
2.07783e-10
-5.16005e-12
2.72373e-10
-2.6162e-10
3.3713e-10
-5.63103e-10
4.01098e-10
-9.08424e-10
4.63367e-10
-1.29618e-09
5.2352e-10
-1.72449e-09
5.8084e-10
-2.19157e-09
6.35215e-10
-2.69508e-09
6.86165e-10
-3.23261e-09
7.33592e-10
-3.80173e-09
7.77313e-10
-4.40002e-09
8.17321e-10
-5.0251e-09
8.53384e-10
-5.67435e-09
8.85922e-10
-6.34546e-09
9.14787e-10
-7.03609e-09
9.40525e-10
-7.74434e-09
9.63032e-10
-8.46776e-09
9.82633e-10
-9.20439e-09
9.99195e-10
-9.95251e-09
1.01333e-09
-1.07101e-08
1.02457e-09
-1.14753e-08
1.03361e-09
-1.22466e-08
1.0405e-09
-1.30224e-08
1.04516e-09
-1.38013e-08
1.04765e-09
-1.45815e-08
1.04824e-09
-1.53617e-08
1.04695e-09
-1.61407e-08
1.04389e-09
-1.69173e-08
1.03946e-09
-1.76906e-08
1.03384e-09
-1.84597e-08
1.02724e-09
-1.92237e-08
1.01995e-09
-1.9982e-08
1.01203e-09
-2.07336e-08
1.00332e-09
-2.14779e-08
9.93765e-10
-2.22141e-08
9.83243e-10
-2.2941e-08
9.71561e-10
-2.36579e-08
9.58614e-10
-2.43636e-08
9.44362e-10
-2.50572e-08
9.28732e-10
-2.57376e-08
9.11564e-10
-2.64035e-08
8.92813e-10
-2.70541e-08
8.72528e-10
-2.76881e-08
8.507e-10
-2.83046e-08
8.27344e-10
-2.89025e-08
8.02544e-10
-2.9481e-08
7.76501e-10
-3.00393e-08
7.49462e-10
-3.05768e-08
7.21639e-10
-3.10929e-08
6.93198e-10
-3.15871e-08
6.6421e-10
-3.20588e-08
6.34651e-10
-3.25075e-08
6.04464e-10
-3.29329e-08
5.73643e-10
-3.33344e-08
5.42302e-10
-3.37116e-08
5.10577e-10
-3.40643e-08
4.78492e-10
-3.43921e-08
4.45973e-10
-3.46945e-08
4.12928e-10
-3.4971e-08
3.79226e-10
-3.52211e-08
3.44703e-10
-3.54443e-08
3.09278e-10
-3.56398e-08
2.72907e-10
-3.58071e-08
2.35517e-10
-3.59456e-08
1.9707e-10
-3.60546e-08
1.57543e-10
-3.61335e-08
1.16925e-10
-3.61817e-08
7.53624e-11
-3.61988e-08
3.30881e-11
-3.61845e-08
-9.76063e-12
-3.61383e-08
-5.31364e-11
-3.606e-08
-9.69916e-11
-3.59496e-08
-1.41288e-10
-3.58068e-08
-1.85912e-10
-3.56316e-08
-2.30606e-10
-3.54242e-08
-2.75081e-10
-3.5185e-08
-3.1911e-10
-3.49143e-08
-3.62495e-10
-3.46126e-08
-4.05068e-10
-3.42805e-08
-4.46769e-10
-3.39188e-08
-4.87574e-10
-3.3528e-08
-5.27349e-10
-3.31091e-08
-5.65869e-10
-3.26628e-08
-6.02964e-10
-3.21902e-08
-6.38564e-10
-3.16922e-08
-6.7266e-10
-3.11697e-08
-7.05345e-10
-3.06235e-08
-7.36819e-10
-3.00545e-08
-7.67267e-10
-2.94635e-08
-7.96754e-10
-2.8851e-08
-8.25278e-10
-2.8218e-08
-8.52882e-10
-2.7565e-08
-8.79639e-10
-2.68929e-08
-9.05594e-10
-2.62022e-08
-9.30761e-10
-2.54938e-08
-9.55137e-10
-2.47685e-08
-9.78649e-10
-2.40271e-08
-1.0011e-09
-2.32707e-08
-1.02218e-09
-2.25007e-08
-1.0416e-09
-2.17183e-08
-1.05908e-09
-2.0925e-08
-1.07438e-09
-2.01226e-08
-1.08732e-09
-1.93127e-08
-1.09773e-09
-1.84973e-08
-1.1055e-09
-1.76781e-08
-1.11052e-09
-1.68571e-08
-1.11272e-09
-1.60363e-08
-1.11203e-09
-1.52175e-08
-1.10851e-09
-1.44028e-08
-1.10228e-09
-1.35938e-08
-1.0935e-09
-1.27923e-08
-1.08238e-09
-1.2e-08
-1.06908e-09
-1.12184e-08
-1.05371e-09
-1.04491e-08
-1.03626e-09
-9.69373e-09
-1.01671e-09
-8.95388e-09
-9.95043e-10
-8.23113e-09
-9.71295e-10
-7.52697e-09
-9.45571e-10
-6.84297e-09
-9.17909e-10
-6.18075e-09
-8.88216e-10
-5.54194e-09
-8.56334e-10
-4.92814e-09
-8.22134e-10
-4.34094e-09
-7.85599e-10
-3.78195e-09
-7.46915e-10
-3.25266e-09
-7.06363e-10
-2.75439e-09
-6.64186e-10
-2.28831e-09
-6.20596e-10
-1.85556e-09
-5.75621e-10
-1.45735e-09
-5.29132e-10
-1.09484e-09
-4.81098e-10
-7.69083e-10
-4.31518e-10
-4.81055e-10
-3.8049e-10
-2.31567e-10
-3.28325e-10
-2.12024e-11
-2.75295e-10
1.49754e-10
-2.21763e-10
2.81459e-10
-1.6831e-10
3.74541e-10
-1.15536e-10
4.30132e-10
-6.42454e-11
4.50098e-10
-1.54818e-11
4.37301e-10
2.94432e-11
3.95865e-10
6.87001e-11
3.31441e-10
1.00032e-10
2.51453e-10
1.20731e-10
1.65405e-10
1.2743e-10
8.51467e-11
1.1579e-10
2.4919e-11
8.09692e-11
2.48457e-11
2.2263e-11
-5.05999e-11
8.7245e-11
-1.58277e-10
1.8701e-10
-2.45859e-10
2.98745e-10
-2.82617e-10
4.01829e-10
-2.74171e-10
4.79376e-10
-2.30521e-10
5.19728e-10
-1.61234e-10
5.12872e-10
-7.23539e-11
4.52103e-10
3.06797e-11
3.32343e-10
1.44055e-10
1.50497e-10
2.64712e-10
-9.5832e-11
3.90597e-10
-4.07544e-10
5.19495e-10
-7.84879e-10
6.49705e-10
-1.22746e-09
7.79714e-10
-1.73433e-09
9.0796e-10
-2.30423e-09
1.03327e-09
-2.93527e-09
1.15456e-09
-3.62534e-09
1.27091e-09
-4.37186e-09
1.38174e-09
-5.17232e-09
1.48663e-09
-6.02394e-09
1.5852e-09
-6.92391e-09
1.67728e-09
-7.8689e-09
1.76231e-09
-8.85628e-09
1.84077e-09
-9.88251e-09
1.91215e-09
-1.09452e-08
1.9775e-09
-1.20406e-08
2.03592e-09
-1.31661e-08
2.08857e-09
-1.43186e-08
2.13504e-09
-1.54953e-08
2.17593e-09
-1.6693e-08
2.21108e-09
-1.79094e-08
2.24093e-09
-1.91415e-08
2.26572e-09
-2.03866e-08
2.28564e-09
-2.16423e-08
2.3008e-09
-2.2906e-08
2.31136e-09
-2.41753e-08
2.3176e-09
-2.5448e-08
2.31967e-09
-2.67219e-08
2.31775e-09
-2.79947e-08
2.31226e-09
-2.92644e-08
2.30353e-09
-3.0529e-08
2.29188e-09
-3.17867e-08
2.27757e-09
-3.30353e-08
2.26071e-09
-3.42733e-08
2.24125e-09
-3.54986e-08
2.21913e-09
-3.67097e-08
2.19427e-09
-3.79046e-08
2.1665e-09
-3.90817e-08
2.13574e-09
-4.02393e-08
2.10194e-09
-4.13756e-08
2.06502e-09
-4.24889e-08
2.02491e-09
-4.35777e-08
1.98157e-09
-4.46403e-08
1.93509e-09
-4.56751e-08
1.88552e-09
-4.66806e-08
1.83291e-09
-4.76555e-08
1.77746e-09
-4.85984e-08
1.7194e-09
-4.9508e-08
1.65904e-09
-5.03831e-08
1.59667e-09
-5.12223e-08
1.53248e-09
-5.20248e-08
1.46664e-09
-5.27893e-08
1.39918e-09
-5.3515e-08
1.33014e-09
-5.42009e-08
1.25957e-09
-5.48462e-08
1.18762e-09
-5.54501e-08
1.11446e-09
-5.60117e-08
1.04013e-09
-5.65303e-08
9.64589e-10
-5.70052e-08
8.87787e-10
-5.74356e-08
8.096e-10
-5.78208e-08
7.29896e-10
-5.81601e-08
6.4862e-10
-5.8453e-08
5.65747e-10
-5.86987e-08
4.8124e-10
-5.88967e-08
3.95089e-10
-5.90465e-08
3.07306e-10
-5.91475e-08
2.17972e-10
-5.91994e-08
1.27281e-10
-5.92018e-08
3.54846e-11
-5.91544e-08
-5.71864e-11
-5.9057e-08
-1.50564e-10
-5.89094e-08
-2.44526e-10
-5.87118e-08
-3.38925e-10
-5.84642e-08
-4.33502e-10
-5.81669e-08
-5.27923e-10
-5.78201e-08
-6.21848e-10
-5.74243e-08
-7.14908e-10
-5.69801e-08
-8.06765e-10
-5.64879e-08
-8.97199e-10
-5.59486e-08
-9.86062e-10
-5.5363e-08
-1.07317e-09
-5.47321e-08
-1.15829e-09
-5.40568e-08
-1.24122e-09
-5.3338e-08
-1.32173e-09
-5.25769e-08
-1.39965e-09
-5.17746e-08
-1.47492e-09
-5.09323e-08
-1.54766e-09
-5.00511e-08
-1.61799e-09
-4.91324e-08
-1.68597e-09
-4.81775e-08
-1.75166e-09
-4.71877e-08
-1.81512e-09
-4.61642e-08
-1.87633e-09
-4.51086e-08
-1.93526e-09
-4.40223e-08
-1.99189e-09
-4.29068e-08
-2.04625e-09
-4.17637e-08
-2.09823e-09
-4.05948e-08
-2.1476e-09
-3.94018e-08
-2.19407e-09
-3.81867e-08
-2.23733e-09
-3.69513e-08
-2.27695e-09
-3.56979e-08
-2.31249e-09
-3.44287e-08
-2.34363e-09
-3.31459e-08
-2.37012e-09
-3.18519e-08
-2.39171e-09
-3.05492e-08
-2.40815e-09
-2.92405e-08
-2.41927e-09
-2.79282e-08
-2.42499e-09
-2.6615e-08
-2.42525e-09
-2.53035e-08
-2.42e-09
-2.39964e-08
-2.40934e-09
-2.26965e-08
-2.39346e-09
-2.14063e-08
-2.37259e-09
-2.01285e-08
-2.34687e-09
-1.88658e-08
-2.31636e-09
-1.7621e-08
-2.28108e-09
-1.63967e-08
-2.24106e-09
-1.51954e-08
-2.19629e-09
-1.40199e-08
-2.14678e-09
-1.28729e-08
-2.09258e-09
-1.17571e-08
-2.03375e-09
-1.06751e-08
-1.97024e-09
-9.62949e-09
-1.90192e-09
-8.62293e-09
-1.8287e-09
-7.65793e-09
-1.7506e-09
-6.73695e-09
-1.66789e-09
-5.8624e-09
-1.58091e-09
-5.03668e-09
-1.48992e-09
-4.26206e-09
-1.39521e-09
-3.54072e-09
-1.29697e-09
-2.87459e-09
-1.19526e-09
-2.26548e-09
-1.09021e-09
-1.71498e-09
-9.8202e-10
-1.22445e-09
-8.71016e-10
-7.94963e-10
-7.57813e-10
-4.27159e-10
-6.43101e-10
-1.21192e-10
-5.27729e-10
1.23324e-10
-4.12824e-10
3.07505e-10
-2.99717e-10
4.33343e-10
-1.90084e-10
5.03914e-10
-8.60549e-11
5.23644e-10
9.71425e-12
4.98447e-10
9.38974e-11
4.36044e-10
1.62434e-10
3.46284e-10
2.10493e-10
2.4134e-10
2.32376e-10
1.35509e-10
2.21622e-10
4.595e-11
1.70529e-10
7.07955e-11
1.74013e-11
-6.79953e-11
7.48595e-11
-2.15736e-10
1.63779e-10
-3.34776e-10
2.57765e-10
-3.7661e-10
3.33213e-10
-3.49617e-10
3.72133e-10
-2.69442e-10
3.59671e-10
-1.48773e-10
2.8505e-10
2.26751e-12
1.40352e-10
1.75378e-10
-8.05599e-11
3.64967e-10
-3.81353e-10
5.65505e-10
-7.64566e-10
7.73806e-10
-1.2312e-09
9.86141e-10
-1.78172e-09
1.20022e-09
-2.41546e-09
1.41346e-09
-3.1312e-09
1.62369e-09
-3.92719e-09
1.82927e-09
-4.80136e-09
2.02873e-09
-5.75137e-09
2.22092e-09
-6.77445e-09
2.40482e-09
-7.86761e-09
2.57979e-09
-9.0274e-09
2.745e-09
-1.02504e-08
2.90034e-09
-1.15335e-08
3.04539e-09
-1.28728e-08
3.18005e-09
-1.42649e-08
3.30427e-09
-1.57057e-08
3.41829e-09
-1.71919e-08
3.52205e-09
-1.87194e-08
3.61611e-09
-2.02846e-08
3.7002e-09
-2.18837e-08
3.77504e-09
-2.3513e-08
3.84042e-09
-2.51691e-08
3.89701e-09
-2.68481e-08
3.94471e-09
-2.85466e-08
3.98416e-09
-3.02612e-08
4.01536e-09
-3.19884e-08
4.03855e-09
-3.37249e-08
4.05414e-09
-3.54676e-08
4.06234e-09
-3.72133e-08
4.06349e-09
-3.8959e-08
4.058e-09
-4.07017e-08
4.04621e-09
-4.24383e-08
4.02847e-09
-4.41659e-08
4.00513e-09
-4.58815e-08
3.97633e-09
-4.75824e-08
3.94217e-09
-4.9266e-08
3.90269e-09
-5.09295e-08
3.85782e-09
-5.25705e-08
3.80751e-09
-5.41865e-08
3.75173e-09
-5.57751e-08
3.69049e-09
-5.73338e-08
3.62374e-09
-5.88604e-08
3.55153e-09
-6.03528e-08
3.47392e-09
-6.18087e-08
3.39102e-09
-6.32261e-08
3.30296e-09
-6.46031e-08
3.20987e-09
-6.59377e-08
3.11206e-09
-6.72281e-08
3.00982e-09
-6.84725e-08
2.90344e-09
-6.96691e-08
2.79326e-09
-7.08163e-08
2.6796e-09
-7.19123e-08
2.56267e-09
-7.29557e-08
2.44261e-09
-7.39451e-08
2.31956e-09
-7.48792e-08
2.19366e-09
-7.57567e-08
2.06512e-09
-7.65764e-08
1.9341e-09
-7.7337e-08
1.80074e-09
-7.80375e-08
1.66509e-09
-7.86768e-08
1.52715e-09
-7.92541e-08
1.3869e-09
-7.97685e-08
1.24427e-09
-8.02192e-08
1.09927e-09
-8.06054e-08
9.51941e-10
-8.09264e-08
8.02331e-10
-8.11819e-08
6.50521e-10
-8.13712e-08
4.96612e-10
-8.1494e-08
3.4074e-10
-8.15499e-08
1.83187e-10
-8.15387e-08
2.42793e-11
-8.14601e-08
-1.3573e-10
-8.13141e-08
-2.96568e-10
-8.11007e-08
-4.57913e-10
-8.08202e-08
-6.19492e-10
-8.04727e-08
-7.8099e-10
-8.00586e-08
-9.41959e-10
-7.95785e-08
-1.10193e-09
-7.90329e-08
-1.26051e-09
-7.84224e-08
-1.41727e-09
-7.77478e-08
-1.57183e-09
-7.701e-08
-1.72389e-09
-7.62099e-08
-1.87324e-09
-7.53487e-08
-2.01953e-09
-7.44274e-08
-2.16244e-09
-7.34475e-08
-2.3017e-09
-7.241e-08
-2.43712e-09
-7.13164e-08
-2.56854e-09
-7.01681e-08
-2.69592e-09
-6.89668e-08
-2.81928e-09
-6.77142e-08
-2.93863e-09
-6.64119e-08
-3.05391e-09
-6.5062e-08
-3.16506e-09
-6.36663e-08
-3.27201e-09
-6.22269e-08
-3.37467e-09
-6.07459e-08
-3.47289e-09
-5.92256e-08
-3.56655e-09
-5.76684e-08
-3.65545e-09
-5.60767e-08
-3.73929e-09
-5.44531e-08
-3.81769e-09
-5.28002e-08
-3.89018e-09
-5.11209e-08
-3.9563e-09
-4.94178e-08
-4.01559e-09
-4.76938e-08
-4.06762e-09
-4.59519e-08
-4.11199e-09
-4.41953e-08
-4.14837e-09
-4.24269e-08
-4.17649e-09
-4.06501e-08
-4.19611e-09
-3.8868e-08
-4.20703e-09
-3.70842e-08
-4.20914e-09
-3.53018e-08
-4.20238e-09
-3.35243e-08
-4.18681e-09
-3.17552e-08
-4.16252e-09
-2.99982e-08
-4.12963e-09
-2.82568e-08
-4.08823e-09
-2.65348e-08
-4.03843e-09
-2.48356e-08
-3.98025e-09
-2.3163e-08
-3.91366e-09
-2.15206e-08
-3.83865e-09
-1.99122e-08
-3.75523e-09
-1.83413e-08
-3.66348e-09
-1.68116e-08
-3.56344e-09
-1.53268e-08
-3.45506e-09
-1.38904e-08
-3.33828e-09
-1.2506e-08
-3.21315e-09
-1.11768e-08
-3.07978e-09
-9.90623e-09
-2.93844e-09
-8.69764e-09
-2.7895e-09
-7.55421e-09
-2.63334e-09
-6.47905e-09
-2.47037e-09
-5.47503e-09
-2.30099e-09
-4.54483e-09
-2.12546e-09
-3.69083e-09
-1.94421e-09
-2.91503e-09
-1.75781e-09
-2.21907e-09
-1.56697e-09
-1.60417e-09
-1.37272e-09
-1.07102e-09
-1.17625e-09
-6.19719e-10
-9.79031e-10
-2.49565e-10
-7.82977e-10
4.1078e-11
-5.9036e-10
2.54933e-10
-4.03937e-10
3.96001e-10
-2.27123e-10
4.69807e-10
-6.40916e-11
4.836e-10
8.01048e-11
4.46577e-10
1.99455e-10
3.70182e-10
2.86889e-10
2.68157e-10
3.34402e-10
1.56525e-10
3.33253e-10
5.50688e-11
2.71987e-10
1.25864e-10
1.02489e-11
-7.82475e-11
5.17724e-11
-2.57261e-10
1.17033e-10
-4.00036e-10
1.78447e-10
-4.38024e-10
2.10395e-10
-3.81572e-10
1.934e-10
-2.52446e-10
1.11933e-10
-6.73084e-11
-4.54428e-11
1.59642e-10
-2.88282e-10
4.18215e-10
-6.22357e-10
6.99046e-10
-1.05265e-09
9.95798e-10
-1.58162e-09
1.30278e-09
-2.21079e-09
1.6153e-09
-2.9402e-09
1.92963e-09
-3.76934e-09
2.24259e-09
-4.69699e-09
2.55134e-09
-5.72134e-09
2.85361e-09
-6.83992e-09
3.14732e-09
-8.04987e-09
3.43087e-09
-9.34818e-09
3.70313e-09
-1.07312e-08
3.96277e-09
-1.21956e-08
4.20945e-09
-1.37373e-08
4.44204e-09
-1.53524e-08
4.66051e-09
-1.70365e-08
4.86411e-09
-1.87857e-08
5.05348e-09
-2.05952e-08
5.2278e-09
-2.24611e-08
5.38796e-09
-2.43784e-08
5.53342e-09
-2.63431e-08
5.66482e-09
-2.83504e-08
5.78233e-09
-3.03959e-08
5.88599e-09
-3.24752e-08
5.97633e-09
-3.45841e-08
6.05351e-09
-3.67179e-08
6.11798e-09
-3.88725e-08
6.16997e-09
-4.10437e-08
6.20977e-09
-4.32273e-08
6.23776e-09
-4.54193e-08
6.2543e-09
-4.76156e-08
6.25985e-09
-4.98124e-08
6.25478e-09
-5.20058e-08
6.23956e-09
-5.41919e-08
6.21458e-09
-5.63669e-08
6.18016e-09
-5.85271e-08
6.13654e-09
-6.06689e-08
6.08397e-09
-6.27888e-08
6.02256e-09
-6.48834e-08
5.95239e-09
-6.69494e-08
5.87352e-09
-6.89837e-08
5.78602e-09
-7.09831e-08
5.68995e-09
-7.29448e-08
5.58541e-09
-7.48658e-08
5.47254e-09
-7.67434e-08
5.35151e-09
-7.85749e-08
5.22249e-09
-8.03576e-08
5.08571e-09
-8.20892e-08
4.94144e-09
-8.37671e-08
4.79003e-09
-8.53892e-08
4.63185e-09
-8.6953e-08
4.46726e-09
-8.84564e-08
4.29666e-09
-8.98972e-08
4.12043e-09
-9.12734e-08
3.93886e-09
-9.2583e-08
3.75223e-09
-9.38243e-08
3.56079e-09
-9.49954e-08
3.3648e-09
-9.60948e-08
3.16451e-09
-9.71209e-08
2.96017e-09
-9.80721e-08
2.752e-09
-9.89472e-08
2.54015e-09
-9.97448e-08
2.32474e-09
-1.00464e-07
2.10588e-09
-1.01103e-07
1.88361e-09
-1.01662e-07
1.65804e-09
-1.02139e-07
1.42933e-09
-1.02535e-07
1.19762e-09
-1.02847e-07
9.63074e-10
-1.03076e-07
7.25935e-10
-1.03222e-07
4.86495e-10
-1.03284e-07
2.45081e-10
-1.03262e-07
2.06952e-12
-1.03155e-07
-2.42147e-10
-1.02965e-07
-4.87174e-10
-1.0269e-07
-7.32598e-10
-1.02332e-07
-9.77983e-10
-1.0189e-07
-1.22286e-09
-1.01365e-07
-1.4667e-09
-1.00758e-07
-1.70898e-09
-1.00069e-07
-1.94915e-09
-9.93e-08
-2.18669e-09
-9.84507e-08
-2.42113e-09
-9.75225e-08
-2.65206e-09
-9.65167e-08
-2.87905e-09
-9.54345e-08
-3.10171e-09
-9.42773e-08
-3.31963e-09
-9.30466e-08
-3.53244e-09
-9.17439e-08
-3.73982e-09
-9.03709e-08
-3.94153e-09
-8.89294e-08
-4.1374e-09
-8.74214e-08
-4.32727e-09
-8.58491e-08
-4.51097e-09
-8.42146e-08
-4.68837e-09
-8.25204e-08
-4.85931e-09
-8.07688e-08
-5.02356e-09
-7.89626e-08
-5.18086e-09
-7.71045e-08
-5.33098e-09
-7.51974e-08
-5.47367e-09
-7.32443e-08
-5.60858e-09
-7.12483e-08
-5.73526e-09
-6.92128e-08
-5.85326e-09
-6.71409e-08
-5.96207e-09
-6.5036e-08
-6.06112e-09
-6.29018e-08
-6.14983e-09
-6.07417e-08
-6.22771e-09
-5.85594e-08
-6.29432e-09
-5.63585e-08
-6.34924e-09
-5.4143e-08
-6.39203e-09
-5.19167e-08
-6.42239e-09
-4.96837e-08
-6.44009e-09
-4.74478e-08
-6.44495e-09
-4.52134e-08
-6.43682e-09
-4.29846e-08
-6.41563e-09
-4.07657e-08
-6.38142e-09
-3.85611e-08
-6.33424e-09
-3.63752e-08
-6.2741e-09
-3.42126e-08
-6.20102e-09
-3.20779e-08
-6.11499e-09
-2.99755e-08
-6.01602e-09
-2.791e-08
-5.9041e-09
-2.5886e-08
-5.77923e-09
-2.39081e-08
-5.64144e-09
-2.19807e-08
-5.4908e-09
-2.01084e-08
-5.32735e-09
-1.82956e-08
-5.15111e-09
-1.65466e-08
-4.9622e-09
-1.48655e-08
-4.76083e-09
-1.32566e-08
-4.54734e-09
-1.17239e-08
-4.32225e-09
-1.02712e-08
-4.08602e-09
-8.90235e-09
-3.8392e-09
-7.62088e-09
-3.58246e-09
-6.42994e-09
-3.3164e-09
-5.33235e-09
-3.0418e-09
-4.3305e-09
-2.75967e-09
-3.42627e-09
-2.4712e-09
-2.62106e-09
-2.17793e-09
-1.91556e-09
-1.88174e-09
-1.30972e-09
-1.58487e-09
-8.02582e-10
-1.29012e-09
-3.92131e-10
-1.00081e-09
-7.51157e-11
-7.20951e-10
1.53156e-10
-4.55394e-10
2.9902e-10
-2.09956e-10
3.70646e-10
8.4806e-12
3.78197e-10
1.91903e-10
3.34135e-10
3.30952e-10
2.53329e-10
4.15208e-10
1.53129e-10
4.33453e-10
5.52203e-11
3.69898e-10
1.81084e-10
1.06643e-12
-7.93152e-11
2.02706e-11
-2.76465e-10
5.24102e-11
-4.32173e-10
6.83768e-11
-4.53993e-10
4.30775e-11
-3.56273e-10
-4.38491e-11
-1.6552e-10
-2.08035e-10
9.68807e-11
-4.62094e-10
4.13699e-10
-8.15095e-10
7.71218e-10
-1.27417e-09
1.15812e-09
-1.84398e-09
1.56561e-09
-2.5273e-09
1.9861e-09
-3.32607e-09
2.41407e-09
-4.24046e-09
2.84402e-09
-5.26999e-09
3.27213e-09
-6.41315e-09
3.69451e-09
-7.66777e-09
4.10822e-09
-9.03147e-09
4.51102e-09
-1.05011e-08
4.90048e-09
-1.20731e-08
5.27517e-09
-1.37439e-08
5.63355e-09
-1.5509e-08
5.97456e-09
-1.73643e-08
6.29732e-09
-1.93051e-08
6.60137e-09
-2.13271e-08
6.88609e-09
-2.34249e-08
7.15126e-09
-2.5594e-08
7.39687e-09
-2.78289e-08
7.62288e-09
-3.01248e-08
7.8293e-09
-3.24765e-08
8.01651e-09
-3.48784e-08
8.18431e-09
-3.7326e-08
8.33353e-09
-3.98136e-08
8.46391e-09
-4.23362e-08
8.57617e-09
-4.48888e-08
8.67053e-09
-4.74662e-08
8.74737e-09
-5.00635e-08
8.80709e-09
-5.26758e-08
8.85006e-09
-5.52982e-08
8.87674e-09
-5.7926e-08
8.8876e-09
-6.05543e-08
8.88311e-09
-6.31786e-08
8.86382e-09
-6.57942e-08
8.83017e-09
-6.83966e-08
8.78252e-09
-7.09813e-08
8.72126e-09
-7.3544e-08
8.6467e-09
-7.60805e-08
8.55908e-09
-7.85867e-08
8.45858e-09
-8.10586e-08
8.34545e-09
-8.34925e-08
8.21988e-09
-8.58846e-08
8.08202e-09
-8.82313e-08
7.93213e-09
-9.05292e-08
7.77046e-09
-9.2775e-08
7.59732e-09
-9.49655e-08
7.41295e-09
-9.70975e-08
7.21771e-09
-9.9168e-08
7.01199e-09
-1.01174e-07
6.79623e-09
-1.03113e-07
6.57088e-09
-1.04982e-07
6.33639e-09
-1.06779e-07
6.09326e-09
-1.085e-07
5.84194e-09
-1.10144e-07
5.58284e-09
-1.11709e-07
5.31633e-09
-1.13191e-07
5.04282e-09
-1.14588e-07
4.76268e-09
-1.159e-07
4.47627e-09
-1.17124e-07
4.18392e-09
-1.18258e-07
3.88598e-09
-1.19301e-07
3.58274e-09
-1.2025e-07
3.27444e-09
-1.21106e-07
2.9613e-09
-1.21866e-07
2.64355e-09
-1.22529e-07
2.32146e-09
-1.23095e-07
1.99527e-09
-1.23563e-07
1.66525e-09
-1.23931e-07
1.33176e-09
-1.242e-07
9.95135e-10
-1.2437e-07
6.55765e-10
-1.24439e-07
3.14139e-10
-1.24408e-07
-2.92334e-11
-1.24276e-07
-3.73889e-10
-1.24044e-07
-7.19307e-10
-1.23711e-07
-1.06489e-09
-1.23279e-07
-1.41007e-09
-1.22748e-07
-1.75427e-09
-1.22118e-07
-2.09685e-09
-1.2139e-07
-2.43712e-09
-1.20564e-07
-2.77445e-09
-1.19643e-07
-3.10819e-09
-1.18626e-07
-3.43776e-09
-1.17516e-07
-3.7626e-09
-1.16313e-07
-4.08214e-09
-1.15018e-07
-4.39583e-09
-1.13635e-07
-4.70316e-09
-1.12164e-07
-5.00366e-09
-1.10607e-07
-5.29687e-09
-1.08966e-07
-5.58238e-09
-1.07243e-07
-5.85986e-09
-1.05442e-07
-6.12901e-09
-1.03563e-07
-6.38948e-09
-1.0161e-07
-6.64095e-09
-9.95866e-08
-6.88311e-09
-9.74946e-08
-7.11561e-09
-9.53374e-08
-7.33804e-09
-9.31184e-08
-7.54996e-09
-9.08411e-08
-7.75097e-09
-8.85091e-08
-7.94061e-09
-8.6126e-08
-8.11833e-09
-8.36958e-08
-8.28351e-09
-8.12223e-08
-8.43552e-09
-7.87097e-08
-8.57375e-09
-7.6162e-08
-8.69756e-09
-7.35834e-08
-8.80633e-09
-7.09782e-08
-8.89948e-09
-6.83509e-08
-8.97651e-09
-6.5706e-08
-9.03695e-09
-6.3048e-08
-9.08039e-09
-6.03816e-08
-9.10646e-09
-5.77117e-08
-9.1149e-09
-5.5043e-08
-9.10547e-09
-5.23806e-08
-9.07803e-09
-4.97296e-08
-9.03251e-09
-4.7095e-08
-8.96882e-09
-4.44821e-08
-8.88693e-09
-4.18964e-08
-8.78679e-09
-3.9343e-08
-8.66837e-09
-3.68274e-08
-8.53165e-09
-3.43549e-08
-8.37658e-09
-3.19309e-08
-8.2032e-09
-2.95608e-08
-8.01154e-09
-2.72499e-08
-7.80172e-09
-2.50035e-08
-7.57381e-09
-2.28266e-08
-7.32792e-09
-2.07246e-08
-7.06428e-09
-1.87021e-08
-6.78327e-09
-1.67641e-08
-6.48533e-09
-1.49153e-08
-6.17106e-09
-1.31602e-08
-5.84115e-09
-1.1503e-08
-5.49634e-09
-9.9479e-09
-5.1376e-09
-8.49837e-09
-4.76593e-09
-7.15765e-09
-4.38251e-09
-5.92845e-09
-3.98887e-09
-4.81288e-09
-3.58677e-09
-3.81243e-09
-3.17838e-09
-2.92783e-09
-2.76634e-09
-2.15894e-09
-2.35376e-09
-1.50463e-09
-1.94442e-09
-9.62604e-10
-1.54284e-09
-5.29207e-10
-1.15435e-09
-1.99306e-10
-7.85295e-10
3.3926e-11
-4.43189e-10
1.79191e-10
-1.36785e-10
2.47305e-10
1.23789e-10
2.51324e-10
3.26934e-10
2.06787e-10
4.59746e-10
1.31822e-10
5.08417e-10
4.92506e-11
4.52471e-10
2.30334e-10
-9.21658e-12
-7.0097e-11
-1.68643e-11
-2.68819e-10
-2.65417e-11
-4.22494e-10
-6.54947e-11
-4.15041e-10
-1.59117e-10
-2.62653e-10
-3.27775e-10
3.1401e-12
-5.87001e-10
3.56106e-10
-9.4917e-10
7.75866e-10
-1.42376e-09
1.2458e-09
-2.01779e-09
1.75215e-09
-2.73621e-09
2.28402e-09
-3.58248e-09
2.83238e-09
-4.55785e-09
3.38943e-09
-5.66301e-09
3.94919e-09
-6.8972e-09
4.50631e-09
-8.25897e-09
5.05628e-09
-9.74636e-09
5.59561e-09
-1.13561e-08
6.1208e-09
-1.30853e-08
6.62962e-09
-1.49297e-08
7.1196e-09
-1.68854e-08
7.5892e-09
-1.89476e-08
8.03683e-09
-2.1112e-08
8.46166e-09
-2.33729e-08
8.86233e-09
-2.57256e-08
9.23876e-09
-2.81643e-08
9.59e-09
-3.06839e-08
9.9164e-09
-3.32782e-08
1.02172e-08
-3.59418e-08
1.04929e-08
-3.86688e-08
1.07434e-08
-4.14533e-08
1.09689e-08
-4.42895e-08
1.11697e-08
-4.71716e-08
1.1346e-08
-5.00936e-08
1.14982e-08
-5.30497e-08
1.16267e-08
-5.60343e-08
1.17319e-08
-5.90415e-08
1.18143e-08
-6.20657e-08
1.18743e-08
-6.51015e-08
1.19125e-08
-6.81432e-08
1.19293e-08
-7.11854e-08
1.19253e-08
-7.42227e-08
1.19012e-08
-7.72498e-08
1.18573e-08
-8.02615e-08
1.17942e-08
-8.32527e-08
1.17125e-08
-8.62184e-08
1.16124e-08
-8.91537e-08
1.14943e-08
-9.20538e-08
1.13587e-08
-9.49143e-08
1.12059e-08
-9.77306e-08
1.10362e-08
-1.00499e-07
1.08499e-08
-1.03214e-07
1.06475e-08
-1.05873e-07
1.04293e-08
-1.08471e-07
1.01956e-08
-1.11005e-07
9.94708e-09
-1.13471e-07
9.68405e-09
-1.15867e-07
9.40707e-09
-1.18187e-07
9.11666e-09
-1.20429e-07
8.81337e-09
-1.22591e-07
8.4978e-09
-1.24668e-07
8.17055e-09
-1.26658e-07
7.83216e-09
-1.28559e-07
7.48316e-09
-1.30366e-07
7.12407e-09
-1.32079e-07
6.75545e-09
-1.33694e-07
6.37777e-09
-1.35209e-07
5.99151e-09
-1.36623e-07
5.59719e-09
-1.37932e-07
5.19528e-09
-1.39135e-07
4.78617e-09
-1.40231e-07
4.37028e-09
-1.41218e-07
3.94803e-09
-1.42094e-07
3.51975e-09
-1.42859e-07
3.08589e-09
-1.4351e-07
2.6469e-09
-1.44048e-07
2.20318e-09
-1.44472e-07
1.75518e-09
-1.4478e-07
1.30346e-09
-1.44973e-07
8.4859e-10
-1.4505e-07
3.91132e-10
-1.45011e-07
-6.82921e-11
-1.44855e-07
-5.29027e-10
-1.44584e-07
-9.90372e-10
-1.44198e-07
-1.45162e-09
-1.43696e-07
-1.91207e-09
-1.43079e-07
-2.37098e-09
-1.42348e-07
-2.82754e-09
-1.41504e-07
-3.28096e-09
-1.40548e-07
-3.73049e-09
-1.39481e-07
-4.17533e-09
-1.38304e-07
-4.61473e-09
-1.37019e-07
-5.04796e-09
-1.35627e-07
-5.47436e-09
-1.34129e-07
-5.89321e-09
-1.32529e-07
-6.30381e-09
-1.30827e-07
-6.70553e-09
-1.29026e-07
-7.09781e-09
-1.27128e-07
-7.48007e-09
-1.25136e-07
-7.85176e-09
-1.23053e-07
-8.21236e-09
-1.20881e-07
-8.56138e-09
-1.18624e-07
-8.89835e-09
-1.16284e-07
-9.22272e-09
-1.13866e-07
-9.53394e-09
-1.11372e-07
-9.83145e-09
-1.08808e-07
-1.01147e-08
-1.06176e-07
-1.0383e-08
-1.0348e-07
-1.06359e-08
-1.00726e-07
-1.08725e-08
-9.79174e-08
-1.10922e-08
-9.50587e-08
-1.12942e-08
-9.21547e-08
-1.14778e-08
-8.921e-08
-1.16422e-08
-8.62296e-08
-1.17868e-08
-8.32183e-08
-1.19108e-08
-8.01812e-08
-1.20136e-08
-7.71236e-08
-1.20946e-08
-7.40506e-08
-1.21534e-08
-7.09677e-08
-1.21894e-08
-6.78803e-08
-1.22023e-08
-6.47939e-08
-1.21918e-08
-6.17144e-08
-1.21575e-08
-5.86476e-08
-1.20994e-08
-5.55992e-08
-1.20172e-08
-5.25753e-08
-1.19108e-08
-4.95819e-08
-1.17802e-08
-4.66252e-08
-1.16251e-08
-4.37112e-08
-1.14456e-08
-4.08461e-08
-1.12417e-08
-3.80359e-08
-1.10134e-08
-3.52868e-08
-1.07607e-08
-3.26048e-08
-1.04837e-08
-2.99959e-08
-1.01827e-08
-2.74659e-08
-9.85789e-09
-2.50206e-08
-9.50956e-09
-2.26656e-08
-9.13826e-09
-2.04064e-08
-8.74458e-09
-1.82482e-08
-8.32928e-09
-1.6196e-08
-7.8933e-09
-1.42547e-08
-7.43767e-09
-1.24286e-08
-6.96366e-09
-1.07218e-08
-6.47272e-09
-9.13785e-09
-5.9665e-09
-7.67963e-09
-5.44709e-09
-6.3495e-09
-4.9169e-09
-5.14907e-09
-4.37881e-09
-4.07912e-09
-3.83629e-09
-3.13947e-09
-3.2934e-09
-2.32889e-09
-2.755e-09
-1.64493e-09
-2.22681e-09
-1.08373e-09
-1.71554e-09
-6.39928e-10
-1.2291e-09
-3.06429e-10
-7.76688e-10
-7.42442e-11
-3.68969e-10
6.7708e-11
-1.81637e-11
1.32713e-10
2.6193e-10
1.36567e-10
4.55892e-10
9.76962e-11
5.47286e-10
3.91847e-11
5.10984e-10
2.69519e-10
-2.04745e-11
-4.96293e-11
-5.81585e-11
-2.31136e-10
-1.15086e-10
-3.65563e-10
-2.17042e-10
-3.13084e-10
-3.8858e-10
-9.11181e-11
-6.48571e-10
2.6313e-10
-1.01268e-09
7.20213e-10
-1.49298e-09
1.25617e-09
-2.0987e-09
1.85152e-09
-2.83696e-09
2.49042e-09
-3.71263e-09
3.15969e-09
-4.72872e-09
3.84848e-09
-5.88723e-09
4.54794e-09
-7.18846e-09
5.25042e-09
-8.63178e-09
5.94963e-09
-1.02156e-08
6.64011e-09
-1.19375e-08
7.31744e-09
-1.37944e-08
7.97772e-09
-1.57827e-08
8.61796e-09
-1.78983e-08
9.23522e-09
-2.01367e-08
9.82761e-09
-2.2493e-08
1.0393e-08
-2.49615e-08
1.09302e-08
-2.75374e-08
1.14382e-08
-3.02144e-08
1.19158e-08
-3.2987e-08
1.23626e-08
-3.58486e-08
1.2778e-08
-3.87934e-08
1.3162e-08
-4.18149e-08
1.35145e-08
-4.49066e-08
1.38351e-08
-4.80623e-08
1.41245e-08
-5.1275e-08
1.43825e-08
-5.45388e-08
1.46097e-08
-5.78469e-08
1.48062e-08
-6.11928e-08
1.49726e-08
-6.45702e-08
1.51093e-08
-6.79726e-08
1.52167e-08
-7.13937e-08
1.52954e-08
-7.48272e-08
1.53461e-08
-7.82671e-08
1.53692e-08
-8.17072e-08
1.53654e-08
-8.51414e-08
1.53354e-08
-8.85638e-08
1.52797e-08
-9.19685e-08
1.5199e-08
-9.53499e-08
1.50938e-08
-9.87022e-08
1.49647e-08
-1.0202e-07
1.48122e-08
-1.05298e-07
1.46368e-08
-1.08531e-07
1.4439e-08
-1.11714e-07