/*--------------------------------*- C++ -*----------------------------------*\
  =========                 |
  \\      /  F ield         | OpenFOAM: The Open Source CFD Toolbox
   \\    /   O peration     | Website:  https://openfoam.org
    \\  /    A nd           | Version:  7
     \\/     M anipulation  |
\*---------------------------------------------------------------------------*/
FoamFile
{
    version     2.0;
    format      ascii;
    class       volVectorField;
    location    "0.05";
    object      U;
}
// * * * * * * * * * * * * * * * * * * * * * * * * * * * * * * * * * * * * * //

dimensions      [0 1 -1 0 0 0 0];

internalField   nonuniform List<vector> 
25600
(
(1.26294e-07 -5.27702e-07 0)
(3.03085e-06 -2.40775e-06 0)
(9.93773e-06 -3.9495e-06 0)
(1.93556e-05 -4.79637e-06 0)
(2.96642e-05 -5.16733e-06 0)
(3.96233e-05 -5.11389e-06 0)
(4.84603e-05 -4.79961e-06 0)
(5.57453e-05 -4.28139e-06 0)
(6.09906e-05 -3.62581e-06 0)
(6.3888e-05 -2.78642e-06 0)
(6.42504e-05 -1.8507e-06 0)
(6.18741e-05 -7.79952e-07 0)
(5.65551e-05 3.74697e-07 0)
(4.82728e-05 1.5752e-06 0)
(3.68937e-05 2.82477e-06 0)
(2.2461e-05 4.04634e-06 0)
(5.04052e-06 5.27528e-06 0)
(-1.5311e-05 6.45178e-06 0)
(-3.8411e-05 7.5497e-06 0)
(-6.41042e-05 8.55502e-06 0)
(-9.22112e-05 9.44766e-06 0)
(-0.000122557 1.02313e-05 0)
(-0.000154943 1.0943e-05 0)
(-0.000189165 1.15108e-05 0)
(-0.000225012 1.1982e-05 0)
(-0.000262216 1.23509e-05 0)
(-0.000300717 1.26337e-05 0)
(-0.000340236 1.28119e-05 0)
(-0.000380625 1.29476e-05 0)
(-0.000421802 1.29997e-05 0)
(-0.00046357 1.30018e-05 0)
(-0.000505817 1.29781e-05 0)
(-0.000548418 1.28939e-05 0)
(-0.000591293 1.27645e-05 0)
(-0.000634301 1.2657e-05 0)
(-0.000677418 1.24883e-05 0)
(-0.000720495 1.22609e-05 0)
(-0.000763447 1.20662e-05 0)
(-0.000806252 1.18551e-05 0)
(-0.000848808 1.15821e-05 0)
(-0.000891015 1.12966e-05 0)
(-0.000932874 1.10384e-05 0)
(-0.000974388 1.08071e-05 0)
(-0.00101552 1.06361e-05 0)
(-0.0010563 1.0539e-05 0)
(-0.00109674 1.04658e-05 0)
(-0.00113685 1.03817e-05 0)
(-0.00117657 1.02976e-05 0)
(-0.00121591 1.02261e-05 0)
(-0.00125483 1.01585e-05 0)
(-0.00129328 1.00933e-05 0)
(-0.0013312 1.00255e-05 0)
(-0.00136852 9.93676e-06 0)
(-0.00140518 9.81283e-06 0)
(-0.00144111 9.65696e-06 0)
(-0.00147621 9.48566e-06 0)
(-0.00151043 9.28881e-06 0)
(-0.00154368 9.04997e-06 0)
(-0.00157591 8.77904e-06 0)
(-0.00160704 8.50148e-06 0)
(-0.00163707 8.23863e-06 0)
(-0.00166598 7.98919e-06 0)
(-0.00169376 7.74912e-06 0)
(-0.0017204 7.51284e-06 0)
(-0.0017459 7.27039e-06 0)
(-0.00177022 7.02325e-06 0)
(-0.00179335 6.77587e-06 0)
(-0.00181528 6.53973e-06 0)
(-0.00183601 6.31833e-06 0)
(-0.00185553 6.09308e-06 0)
(-0.00187384 5.85552e-06 0)
(-0.00189092 5.60185e-06 0)
(-0.00190671 5.32274e-06 0)
(-0.00192117 5.0254e-06 0)
(-0.00193427 4.70952e-06 0)
(-0.00194593 4.35546e-06 0)
(-0.00195608 3.95824e-06 0)
(-0.00196467 3.51652e-06 0)
(-0.00197161 3.01904e-06 0)
(-0.00197684 2.4772e-06 0)
(-0.0019803 1.91863e-06 0)
(-0.00198196 1.35102e-06 0)
(-0.00198178 7.66509e-07 0)
(-0.00197973 1.57726e-07 0)
(-0.00197577 -4.84975e-07 0)
(-0.00196986 -1.16298e-06 0)
(-0.00196198 -1.85887e-06 0)
(-0.00195213 -2.55326e-06 0)
(-0.00194032 -3.23741e-06 0)
(-0.00192657 -3.90353e-06 0)
(-0.00191095 -4.54476e-06 0)
(-0.00189349 -5.16627e-06 0)
(-0.00187423 -5.7754e-06 0)
(-0.00185321 -6.36327e-06 0)
(-0.00183052 -6.91274e-06 0)
(-0.00180622 -7.41621e-06 0)
(-0.00178038 -7.87168e-06 0)
(-0.00175312 -8.27536e-06 0)
(-0.00172451 -8.63361e-06 0)
(-0.00169461 -8.9676e-06 0)
(-0.00166348 -9.2924e-06 0)
(-0.00163116 -9.60546e-06 0)
(-0.00159767 -9.90515e-06 0)
(-0.00156305 -1.02043e-05 0)
(-0.00152732 -1.05162e-05 0)
(-0.00149051 -1.08421e-05 0)
(-0.00145262 -1.11784e-05 0)
(-0.00141367 -1.15267e-05 0)
(-0.00137365 -1.18896e-05 0)
(-0.0013326 -1.22631e-05 0)
(-0.00129055 -1.26358e-05 0)
(-0.00124754 -1.29923e-05 0)
(-0.00120366 -1.3318e-05 0)
(-0.00115901 -1.36029e-05 0)
(-0.0011137 -1.38407e-05 0)
(-0.00106785 -1.40238e-05 0)
(-0.00102158 -1.41457e-05 0)
(-0.000975035 -1.42053e-05 0)
(-0.000928361 -1.42045e-05 0)
(-0.000881694 -1.41398e-05 0)
(-0.000835179 -1.40051e-05 0)
(-0.000788966 -1.38044e-05 0)
(-0.000743182 -1.35577e-05 0)
(-0.000697931 -1.32885e-05 0)
(-0.000653296 -1.30055e-05 0)
(-0.000609363 -1.27023e-05 0)
(-0.000566215 -1.23748e-05 0)
(-0.000523931 -1.20242e-05 0)
(-0.000482591 -1.16499e-05 0)
(-0.000442273 -1.12524e-05 0)
(-0.000403054 -1.0843e-05 0)
(-0.000365004 -1.04333e-05 0)
(-0.000328191 -1.00202e-05 0)
(-0.000292693 -9.58713e-06 0)
(-0.000258609 -9.11519e-06 0)
(-0.000226054 -8.60362e-06 0)
(-0.000195125 -8.07214e-06 0)
(-0.000165902 -7.53152e-06 0)
(-0.000138448 -6.98683e-06 0)
(-0.000112801 -6.44969e-06 0)
(-8.89978e-05 -5.91598e-06 0)
(-6.7088e-05 -5.37909e-06 0)
(-4.71116e-05 -4.83176e-06 0)
(-2.91435e-05 -4.24826e-06 0)
(-1.32708e-05 -3.63305e-06 0)
(4.50398e-07 -3.00586e-06 0)
(1.19529e-05 -2.36205e-06 0)
(2.12019e-05 -1.70895e-06 0)
(2.81958e-05 -1.04178e-06 0)
(3.29145e-05 -3.55535e-07 0)
(3.53876e-05 3.1926e-07 0)
(3.56913e-05 9.6674e-07 0)
(3.39458e-05 1.57466e-06 0)
(3.03577e-05 2.1087e-06 0)
(2.52221e-05 2.51652e-06 0)
(1.8976e-05 2.73411e-06 0)
(1.22357e-05 2.67607e-06 0)
(5.82814e-06 2.1702e-06 0)
(1.21227e-06 1.01332e-06 0)
(-2.43487e-07 -3.89452e-07 0)
(6.69958e-07 -2.69422e-06 0)
(6.82822e-06 -9.56879e-06 0)
(1.9707e-05 -1.50679e-05 0)
(3.67232e-05 -1.78833e-05 0)
(5.46248e-05 -1.82145e-05 0)
(7.11633e-05 -1.68759e-05 0)
(8.46819e-05 -1.41928e-05 0)
(9.37079e-05 -1.07092e-05 0)
(9.74414e-05 -6.44318e-06 0)
(9.52285e-05 -1.75007e-06 0)
(8.64027e-05 3.36527e-06 0)
(7.07106e-05 8.8359e-06 0)
(4.78968e-05 1.44936e-05 0)
(1.781e-05 2.0338e-05 0)
(-1.95846e-05 2.61598e-05 0)
(-6.42305e-05 3.19582e-05 0)
(-0.000116029 3.75881e-05 0)
(-0.000174742 4.29972e-05 0)
(-0.000240093 4.81553e-05 0)
(-0.000311807 5.29602e-05 0)
(-0.000389556 5.74425e-05 0)
(-0.000472933 6.15955e-05 0)
(-0.000561569 6.53393e-05 0)
(-0.000655037 6.87446e-05 0)
(-0.000752978 7.17087e-05 0)
(-0.000855058 7.43995e-05 0)
(-0.000960753 7.66376e-05 0)
(-0.00106977 7.87257e-05 0)
(-0.00118178 8.03291e-05 0)
(-0.0012964 8.18156e-05 0)
(-0.00141328 8.29672e-05 0)
(-0.00153212 8.38999e-05 0)
(-0.00165265 8.45895e-05 0)
(-0.00177456 8.51266e-05 0)
(-0.00189756 8.54479e-05 0)
(-0.00202138 8.55934e-05 0)
(-0.00214579 8.5572e-05 0)
(-0.00227059 8.53972e-05 0)
(-0.00239548 8.50813e-05 0)
(-0.00252024 8.46295e-05 0)
(-0.00264474 8.407e-05 0)
(-0.00276878 8.34248e-05 0)
(-0.00289219 8.2739e-05 0)
(-0.00301487 8.20553e-05 0)
(-0.0031367 8.13866e-05 0)
(-0.00325754 8.07023e-05 0)
(-0.00337726 7.99833e-05 0)
(-0.00349573 7.92053e-05 0)
(-0.00361279 7.83431e-05 0)
(-0.00372833 7.73824e-05 0)
(-0.00384218 7.63245e-05 0)
(-0.00395418 7.51634e-05 0)
(-0.00406414 7.38633e-05 0)
(-0.00417189 7.24188e-05 0)
(-0.00427726 7.08371e-05 0)
(-0.00438005 6.91183e-05 0)
(-0.00448012 6.72626e-05 0)
(-0.0045773 6.5265e-05 0)
(-0.00467146 6.31518e-05 0)
(-0.00476244 6.09606e-05 0)
(-0.00485013 5.8722e-05 0)
(-0.00493444 5.64557e-05 0)
(-0.00501529 5.41658e-05 0)
(-0.00509258 5.18526e-05 0)
(-0.00516623 4.94945e-05 0)
(-0.00523617 4.70854e-05 0)
(-0.00530233 4.46487e-05 0)
(-0.00536465 4.21963e-05 0)
(-0.00542306 3.97353e-05 0)
(-0.00547752 3.72567e-05 0)
(-0.00552795 3.47324e-05 0)
(-0.00557428 3.21472e-05 0)
(-0.00561644 2.9487e-05 0)
(-0.00565432 2.67325e-05 0)
(-0.00568783 2.38805e-05 0)
(-0.00571689 2.09269e-05 0)
(-0.00574138 1.78538e-05 0)
(-0.00576119 1.46516e-05 0)
(-0.00577624 1.13227e-05 0)
(-0.00578644 7.87979e-06 0)
(-0.00579169 4.35156e-06 0)
(-0.00579192 7.67478e-07 0)
(-0.00578709 -2.86755e-06 0)
(-0.00577714 -6.56707e-06 0)
(-0.00576204 -1.03334e-05 0)
(-0.00574178 -1.41482e-05 0)
(-0.00571634 -1.79847e-05 0)
(-0.00568573 -2.18132e-05 0)
(-0.00565 -2.55984e-05 0)
(-0.00560918 -2.93118e-05 0)
(-0.00556337 -3.29439e-05 0)
(-0.00551264 -3.64949e-05 0)
(-0.0054571 -3.99597e-05 0)
(-0.00539687 -4.33246e-05 0)
(-0.00533207 -4.65695e-05 0)
(-0.00526282 -4.9669e-05 0)
(-0.00518929 -5.26038e-05 0)
(-0.0051116 -5.53774e-05 0)
(-0.00502991 -5.80159e-05 0)
(-0.00494438 -6.05486e-05 0)
(-0.00485514 -6.29946e-05 0)
(-0.0047623 -6.53639e-05 0)
(-0.00466599 -6.7664e-05 0)
(-0.00456632 -6.99012e-05 0)
(-0.00446342 -7.20835e-05 0)
(-0.00435738 -7.42236e-05 0)
(-0.00424832 -7.63326e-05 0)
(-0.00413636 -7.84095e-05 0)
(-0.00402163 -8.04406e-05 0)
(-0.00390426 -8.24055e-05 0)
(-0.00378439 -8.42764e-05 0)
(-0.00366222 -8.60155e-05 0)
(-0.00353797 -8.75821e-05 0)
(-0.00341186 -8.89479e-05 0)
(-0.00328413 -9.00977e-05 0)
(-0.00315507 -9.10165e-05 0)
(-0.00302499 -9.16845e-05 0)
(-0.00289415 -9.20878e-05 0)
(-0.00276285 -9.22235e-05 0)
(-0.00263142 -9.20913e-05 0)
(-0.00250019 -9.16898e-05 0)
(-0.00236944 -9.10298e-05 0)
(-0.00223946 -9.01421e-05 0)
(-0.00211055 -8.90645e-05 0)
(-0.00198299 -8.78205e-05 0)
(-0.00185702 -8.64154e-05 0)
(-0.00173289 -8.48488e-05 0)
(-0.00161085 -8.31183e-05 0)
(-0.00149117 -8.12189e-05 0)
(-0.0013741 -7.91526e-05 0)
(-0.00125988 -7.69359e-05 0)
(-0.00114876 -7.45832e-05 0)
(-0.00104099 -7.20845e-05 0)
(-0.000936859 -6.94091e-05 0)
(-0.000836606 -6.65275e-05 0)
(-0.00074047 -6.34345e-05 0)
(-0.000648703 -6.01626e-05 0)
(-0.000561572 -5.67546e-05 0)
(-0.000479313 -5.32355e-05 0)
(-0.000402118 -4.96254e-05 0)
(-0.000330164 -4.59262e-05 0)
(-0.000263645 -4.21115e-05 0)
(-0.000202746 -3.8169e-05 0)
(-0.000147644 -3.40887e-05 0)
(-9.85044e-05 -2.98652e-05 0)
(-5.54723e-05 -2.55387e-05 0)
(-1.86753e-05 -2.11324e-05 0)
(1.18156e-05 -1.66635e-05 0)
(3.60126e-05 -1.21857e-05 0)
(5.39698e-05 -7.73924e-06 0)
(6.58105e-05 -3.39984e-06 0)
(7.17663e-05 7.31304e-07 0)
(7.21961e-05 4.54295e-06 0)
(6.76582e-05 7.85802e-06 0)
(5.89369e-05 1.04652e-05 0)
(4.70692e-05 1.20974e-05 0)
(3.3402e-05 1.23927e-05 0)
(1.95385e-05 1.08433e-05 0)
(7.88749e-06 6.93107e-06 0)
(1.69789e-06 1.35204e-06 0)
(3.75482e-07 -6.41084e-06 0)
(7.20438e-06 -2.0168e-05 0)
(2.08963e-05 -3.1366e-05 0)
(3.87876e-05 -3.64634e-05 0)
(5.68144e-05 -3.61618e-05 0)
(7.17827e-05 -3.16831e-05 0)
(8.16077e-05 -2.41375e-05 0)
(8.4615e-05 -1.43788e-05 0)
(7.94486e-05 -2.92666e-06 0)
(6.51268e-05 9.71252e-06 0)
(4.11437e-05 2.32581e-05 0)
(6.93697e-06 3.73832e-05 0)
(-3.76821e-05 5.20022e-05 0)
(-9.28256e-05 6.67592e-05 0)
(-0.000158449 8.15792e-05 0)
(-0.000234426 9.6167e-05 0)
(-0.000320634 0.000110377 0)
(-0.000416767 0.000124161 0)
(-0.000522563 0.000137283 0)
(-0.000637611 0.000149794 0)
(-0.000761439 0.000161554 0)
(-0.000893751 0.000172542 0)
(-0.00103399 0.000182736 0)
(-0.0011817 0.000192113 0)
(-0.00133639 0.00020063 0)
(-0.00149761 0.00020835 0)
(-0.00166482 0.000215354 0)
(-0.00183761 0.000221505 0)
(-0.00201542 0.000227065 0)
(-0.00219772 0.000231871 0)
(-0.00238423 0.000236026 0)
(-0.00257428 0.000239588 0)
(-0.00276747 0.000242499 0)
(-0.00296349 0.000244889 0)
(-0.00316181 0.000246758 0)
(-0.00336194 0.000248093 0)
(-0.00356358 0.000248912 0)
(-0.00376632 0.000249287 0)
(-0.00396976 0.00024924 0)
(-0.00417358 0.000248764 0)
(-0.0043774 0.000247938 0)
(-0.00458088 0.000246808 0)
(-0.00478371 0.000245387 0)
(-0.00498557 0.000243724 0)
(-0.00518615 0.000241856 0)
(-0.00538516 0.000239768 0)
(-0.00558231 0.000237442 0)
(-0.00577729 0.000234863 0)
(-0.00596982 0.000231995 0)
(-0.00615965 0.000228814 0)
(-0.00634649 0.000225307 0)
(-0.00653007 0.000221468 0)
(-0.00671012 0.000217277 0)
(-0.00688636 0.000212719 0)
(-0.00705852 0.000207811 0)
(-0.00722636 0.000202556 0)
(-0.00738963 0.000196959 0)
(-0.00754813 0.00019104 0)
(-0.00770162 0.00018483 0)
(-0.00784986 0.000178377 0)
(-0.00799268 0.000171719 0)
(-0.00812988 0.000164887 0)
(-0.00826127 0.000157903 0)
(-0.00838666 0.000150766 0)
(-0.00850591 0.000143479 0)
(-0.00861887 0.000136034 0)
(-0.0087254 0.00012845 0)
(-0.00882537 0.00012076 0)
(-0.00891864 0.000112959 0)
(-0.00900509 0.000105043 0)
(-0.00908461 9.70053e-05 0)
(-0.00915706 8.88082e-05 0)
(-0.00922233 8.04287e-05 0)
(-0.00928032 7.18623e-05 0)
(-0.00933092 6.30872e-05 0)
(-0.00937401 5.40961e-05 0)
(-0.00940953 4.49002e-05 0)
(-0.00943738 3.54867e-05 0)
(-0.00945746 2.58501e-05 0)
(-0.00946972 1.60271e-05 0)
(-0.00947409 6.05608e-06 0)
(-0.00947049 -4.04218e-06 0)
(-0.0094589 -1.42425e-05 0)
(-0.0094393 -2.45265e-05 0)
(-0.00941168 -3.48896e-05 0)
(-0.00937605 -4.53042e-05 0)
(-0.00933245 -5.5715e-05 0)
(-0.00928092 -6.60733e-05 0)
(-0.0092215 -7.63389e-05 0)
(-0.00915427 -8.64635e-05 0)
(-0.00907933 -9.64088e-05 0)
(-0.00899678 -0.000106163 0)
(-0.00890675 -0.000115716 0)
(-0.00880938 -0.000125035 0)
(-0.00870486 -0.000134084 0)
(-0.0085933 -0.000142836 0)
(-0.00847486 -0.000151271 0)
(-0.00834974 -0.000159379 0)
(-0.00821814 -0.000167179 0)
(-0.0080802 -0.000174708 0)
(-0.00793615 -0.000181991 0)
(-0.00778621 -0.000189032 0)
(-0.00763058 -0.000195839 0)
(-0.00746946 -0.00020242 0)
(-0.00730308 -0.000208777 0)
(-0.00713167 -0.000214915 0)
(-0.00695547 -0.00022084 0)
(-0.0067747 -0.000226549 0)
(-0.00658966 -0.000232013 0)
(-0.00640064 -0.000237192 0)
(-0.00620792 -0.000242037 0)
(-0.0060118 -0.00024649 0)
(-0.00581261 -0.000250492 0)
(-0.00561071 -0.000253995 0)
(-0.00540646 -0.000256965 0)
(-0.00520021 -0.000259372 0)
(-0.00499238 -0.000261186 0)
(-0.00478337 -0.000262381 0)
(-0.00457359 -0.000262943 0)
(-0.00436344 -0.000262868 0)
(-0.00415336 -0.000262158 0)
(-0.00394377 -0.000260831 0)
(-0.0037351 -0.000258919 0)
(-0.00352778 -0.000256457 0)
(-0.00332224 -0.000253473 0)
(-0.0031189 -0.000249979 0)
(-0.0029182 -0.000245984 0)
(-0.00272056 -0.000241486 0)
(-0.0025264 -0.000236481 0)
(-0.00233615 -0.000230971 0)
(-0.00215024 -0.000224972 0)
(-0.0019691 -0.000218495 0)
(-0.00179317 -0.000211529 0)
(-0.00162287 -0.000204043 0)
(-0.00145861 -0.000196012 0)
(-0.00130079 -0.000187439 0)
(-0.00114981 -0.000178362 0)
(-0.00100606 -0.00016883 0)
(-0.000869944 -0.000158892 0)
(-0.000741824 -0.000148585 0)
(-0.000622059 -0.000137918 0)
(-0.000510993 -0.000126884 0)
(-0.000408908 -0.000115483 0)
(-0.00031608 -0.000103724 0)
(-0.000232754 -9.16458e-05 0)
(-0.000159116 -7.93128e-05 0)
(-9.53248e-05 -6.67911e-05 0)
(-4.14382e-05 -5.41717e-05 0)
(2.57703e-06 -4.15747e-05 0)
(3.6818e-05 -2.91539e-05 0)
(6.15228e-05 -1.71015e-05 0)
(7.70883e-05 -5.65844e-06 0)
(8.41006e-05 4.8677e-06 0)
(8.33843e-05 1.40825e-05 0)
(7.60351e-05 2.14936e-05 0)
(6.34534e-05 2.65146e-05 0)
(4.73708e-05 2.84288e-05 0)
(2.97679e-05 2.63649e-05 0)
(1.35138e-05 1.93575e-05 0)
(3.39378e-06 7.19436e-06 0)
(-1.39495e-07 -9.70576e-06 0)
(5.81475e-06 -3.03731e-05 0)
(1.82729e-05 -4.71862e-05 0)
(3.39936e-05 -5.37594e-05 0)
(4.84258e-05 -5.13903e-05 0)
(5.82318e-05 -4.19263e-05 0)
(6.08567e-05 -2.7301e-05 0)
(5.42059e-05 -8.61755e-06 0)
(3.69177e-05 1.28061e-05 0)
(7.92072e-06 3.64035e-05 0)
(-3.37525e-05 6.14289e-05 0)
(-8.83845e-05 8.74804e-05 0)
(-0.00015633 0.000114057 0)
(-0.000237741 0.000140921 0)
(-0.000332487 0.000167689 0)
(-0.000440541 0.000194097 0)
(-0.000561516 0.000219927 0)
(-0.000695226 0.0002449 0)
(-0.00084127 0.000268942 0)
(-0.000999201 0.0002919 0)
(-0.00116867 0.000313682 0)
(-0.00134903 0.000334188 0)
(-0.00153978 0.000353447 0)
(-0.00174041 0.000371241 0)
(-0.00195034 0.000387812 0)
(-0.00216898 0.000402886 0)
(-0.00239579 0.000416772 0)
(-0.00263007 0.000429248 0)
(-0.00287129 0.000440586 0)
(-0.00311892 0.00045061 0)
(-0.00337216 0.000459495 0)
(-0.00363059 0.00046721 0)
(-0.00389359 0.000473811 0)
(-0.00416051 0.000479317 0)
(-0.00443087 0.000483842 0)
(-0.00470407 0.000487348 0)
(-0.00497953 0.000489873 0)
(-0.00525675 0.000491473 0)
(-0.0055352 0.000492165 0)
(-0.00581439 0.000492022 0)
(-0.00609383 0.00049112 0)
(-0.00637303 0.000489491 0)
(-0.00665151 0.000487189 0)
(-0.00692876 0.00048426 0)
(-0.00720432 0.000480711 0)
(-0.00747776 0.000476554 0)
(-0.00774863 0.000471802 0)
(-0.0080165 0.000466447 0)
(-0.00828096 0.000460453 0)
(-0.00854161 0.000453809 0)
(-0.00879807 0.000446514 0)
(-0.00904995 0.000438553 0)
(-0.00929687 0.000429923 0)
(-0.00953848 0.000420626 0)
(-0.00977442 0.00041068 0)
(-0.0100044 0.000400091 0)
(-0.010228 0.000388875 0)
(-0.010445 0.000377076 0)
(-0.0106551 0.000364741 0)
(-0.0108579 0.000351912 0)
(-0.0110533 0.000338634 0)
(-0.0112408 0.000324944 0)
(-0.0114204 0.000310883 0)
(-0.0115916 0.000296462 0)
(-0.0117542 0.00028169 0)
(-0.0119082 0.00026659 0)
(-0.0120532 0.00025118 0)
(-0.012189 0.000235484 0)
(-0.0123154 0.000219522 0)
(-0.0124324 0.000203284 0)
(-0.0125396 0.000186773 0)
(-0.012637 0.000169989 0)
(-0.0127243 0.000152897 0)
(-0.0128016 0.000135487 0)
(-0.0128686 0.00011777 0)
(-0.0129252 9.97362e-05 0)
(-0.0129713 8.1388e-05 0)
(-0.0130069 6.27484e-05 0)
(-0.0130319 4.38313e-05 0)
(-0.0130462 2.46651e-05 0)
(-0.0130498 5.30161e-06 0)
(-0.0130426 -1.42209e-05 0)
(-0.0130246 -3.38778e-05 0)
(-0.0129959 -5.36317e-05 0)
(-0.0129563 -7.34398e-05 0)
(-0.0129061 -9.32589e-05 0)
(-0.0128451 -0.00011303 0)
(-0.0127736 -0.000132683 0)
(-0.0126915 -0.00015216 0)
(-0.012599 -0.000171406 0)
(-0.0124962 -0.000190371 0)
(-0.0123831 -0.000209013 0)
(-0.01226 -0.000227301 0)
(-0.0121271 -0.000245198 0)
(-0.0119845 -0.000262656 0)
(-0.0118323 -0.000279633 0)
(-0.0116709 -0.000296106 0)
(-0.0115003 -0.000312063 0)
(-0.0113209 -0.000327505 0)
(-0.0111329 -0.000342441 0)
(-0.0109365 -0.000356886 0)
(-0.010732 -0.000370849 0)
(-0.0105198 -0.000384325 0)
(-0.0103 -0.000397304 0)
(-0.0100732 -0.000409781 0)
(-0.00983944 -0.000421749 0)
(-0.00959924 -0.000433194 0)
(-0.00935293 -0.000444092 0)
(-0.00910092 -0.000454407 0)
(-0.00884359 -0.000464089 0)
(-0.00858137 -0.000473069 0)
(-0.00831468 -0.000481272 0)
(-0.00804398 -0.00048863 0)
(-0.0077697 -0.000495084 0)
(-0.00749231 -0.000500583 0)
(-0.0072123 -0.000505078 0)
(-0.00693017 -0.000508527 0)
(-0.00664643 -0.000510897 0)
(-0.00636159 -0.000512164 0)
(-0.00607618 -0.000512316 0)
(-0.00579075 -0.000511351 0)
(-0.00550583 -0.000509284 0)
(-0.00522197 -0.000506138 0)
(-0.00493973 -0.000501935 0)
(-0.00465971 -0.000496695 0)
(-0.0043825 -0.00049043 0)
(-0.00410865 -0.000483148 0)
(-0.00383876 -0.00047485 0)
(-0.00357341 -0.000465539 0)
(-0.0033132 -0.000455217 0)
(-0.00305871 -0.000443893 0)
(-0.00281051 -0.00043157 0)
(-0.00256921 -0.000418238 0)
(-0.00233538 -0.000403886 0)
(-0.00210959 -0.000388511 0)
(-0.00189237 -0.000372121 0)
(-0.00168425 -0.000354752 0)
(-0.00148578 -0.000336464 0)
(-0.0012975 -0.000317313 0)
(-0.00111989 -0.000297354 0)
(-0.000953432 -0.000276624 0)
(-0.000798591 -0.000255142 0)
(-0.00065577 -0.000232956 0)
(-0.000525322 -0.00021013 0)
(-0.000407537 -0.000186743 0)
(-0.000302629 -0.000162916 0)
(-0.000210763 -0.000138783 0)
(-0.00013202 -0.000114523 0)
(-6.63493e-05 -9.03868e-05 0)
(-1.35723e-05 -6.66596e-05 0)
(2.66553e-05 -4.36855e-05 0)
(5.48641e-05 -2.18949e-05 0)
(7.17963e-05 -1.82414e-06 0)
(7.84638e-05 1.58581e-05 0)
(7.61971e-05 3.03491e-05 0)
(6.66534e-05 4.07064e-05 0)
(5.18164e-05 4.58397e-05 0)
(3.38575e-05 4.45444e-05 0)
(1.60138e-05 3.52958e-05 0)
(4.15774e-06 1.55933e-05 0)
(-7.3951e-07 -1.20089e-05 0)
(3.70064e-06 -3.86063e-05 0)
(1.30073e-05 -5.98914e-05 0)
(2.42748e-05 -6.67387e-05 0)
(3.27653e-05 -6.0454e-05 0)
(3.46107e-05 -4.42363e-05 0)
(2.726e-05 -2.02788e-05 0)
(8.56839e-06 9.39281e-06 0)
(-2.31883e-05 4.33818e-05 0)
(-6.91263e-05 8.04433e-05 0)
(-0.000130104 0.000119569 0)
(-0.000206789 0.000160208 0)
(-0.000299418 0.000201532 0)
(-0.000408094 0.000243164 0)
(-0.000532847 0.000284605 0)
(-0.000673408 0.000325484 0)
(-0.000829679 0.00036547 0)
(-0.00100121 0.000404304 0)
(-0.0011876 0.000441774 0)
(-0.00138841 0.000477628 0)
(-0.00160304 0.000511848 0)
(-0.00183097 0.000544256 0)
(-0.00207166 0.000574731 0)
(-0.00232434 0.000603349 0)
(-0.00258845 0.00062989 0)
(-0.00286329 0.000654537 0)
(-0.00314813 0.000677137 0)
(-0.00344237 0.000697877 0)
(-0.00374519 0.000716602 0)
(-0.0040559 0.000733507 0)
(-0.00437387 0.0007486 0)
(-0.00469828 0.000761771 0)
(-0.00502842 0.000773292 0)
(-0.00536366 0.000783048 0)
(-0.00570324 0.000791136 0)
(-0.00604648 0.000797636 0)
(-0.00639271 0.000802558 0)
(-0.00674127 0.000805944 0)
(-0.00709147 0.000807849 0)
(-0.00744269 0.000808331 0)
(-0.00779429 0.000807454 0)
(-0.00814566 0.000805298 0)
(-0.00849617 0.000801937 0)
(-0.00884521 0.000797414 0)
(-0.00919219 0.000791742 0)
(-0.0095365 0.000784949 0)
(-0.00987757 0.00077705 0)
(-0.0102148 0.000768045 0)
(-0.0105478 0.000757937 0)
(-0.010876 0.000746732 0)
(-0.0111988 0.000734433 0)
(-0.0115158 0.000721035 0)
(-0.0118265 0.000706557 0)
(-0.0121305 0.000691025 0)
(-0.0124274 0.000674454 0)
(-0.0127166 0.000656865 0)
(-0.0129978 0.00063829 0)
(-0.0132707 0.000618786 0)
(-0.0135348 0.000598409 0)
(-0.0137897 0.000577206 0)
(-0.0140352 0.000555241 0)
(-0.0142708 0.000532564 0)
(-0.0144963 0.000509213 0)
(-0.0147112 0.000485226 0)
(-0.0149153 0.000460623 0)
(-0.0151084 0.000435443 0)
(-0.0152901 0.000409729 0)
(-0.0154602 0.000383502 0)
(-0.0156185 0.000356789 0)
(-0.0157646 0.000329611 0)
(-0.0158985 0.00030197 0)
(-0.0160198 0.000273876 0)
(-0.0161286 0.000245332 0)
(-0.0162244 0.000216341 0)
(-0.0163074 0.000186914 0)
(-0.0163772 0.000157071 0)
(-0.0164338 0.000126825 0)
(-0.0164772 9.6197e-05 0)
(-0.0165072 6.52305e-05 0)
(-0.0165239 3.39762e-05 0)
(-0.016527 2.48498e-06 0)
(-0.0165167 -2.919e-05 0)
(-0.016493 -6.09969e-05 0)
(-0.0164557 -9.28852e-05 0)
(-0.0164051 -0.000124796 0)
(-0.016341 -0.000156658 0)
(-0.0162637 -0.0001884 0)
(-0.0161731 -0.000219946 0)
(-0.0160694 -0.000251213 0)
(-0.0159528 -0.000282123 0)
(-0.0158232 -0.00031262 0)
(-0.015681 -0.000342651 0)
(-0.0155262 -0.000372155 0)
(-0.0153591 -0.000401069 0)
(-0.0151799 -0.000429347 0)
(-0.0149888 -0.000456938 0)
(-0.0147861 -0.000483793 0)
(-0.014572 -0.000509886 0)
(-0.0143467 -0.000535209 0)
(-0.0141107 -0.000559751 0)
(-0.0138642 -0.000583486 0)
(-0.0136075 -0.000606405 0)
(-0.0133411 -0.000628503 0)
(-0.0130654 -0.000649759 0)
(-0.0127806 -0.000670134 0)
(-0.0124874 -0.000689596 0)
(-0.0121861 -0.000708123 0)
(-0.0118771 -0.000725673 0)
(-0.011561 -0.000742185 0)
(-0.0112384 -0.000757589 0)
(-0.0109097 -0.000771813 0)
(-0.0105754 -0.000784777 0)
(-0.0102361 -0.000796393 0)
(-0.00989244 -0.000806585 0)
(-0.00954491 -0.000815291 0)
(-0.0091941 -0.000822452 0)
(-0.00884062 -0.000828009 0)
(-0.00848512 -0.000831918 0)
(-0.00812822 -0.000834147 0)
(-0.00777055 -0.000834674 0)
(-0.00741276 -0.00083348 0)
(-0.00705554 -0.000830566 0)
(-0.00669955 -0.000825948 0)
(-0.00634549 -0.000819641 0)
(-0.00599406 -0.000811648 0)
(-0.005646 -0.000801973 0)
(-0.00530204 -0.00079062 0)
(-0.00496289 -0.000777596 0)
(-0.00462929 -0.000762901 0)
(-0.00430195 -0.000746532 0)
(-0.0039816 -0.000728495 0)
(-0.00366899 -0.000708798 0)
(-0.00336485 -0.000687439 0)
(-0.00306987 -0.000664415 0)
(-0.00278476 -0.000639739 0)
(-0.00251019 -0.000613439 0)
(-0.00224683 -0.000585567 0)
(-0.00199533 -0.00055619 0)
(-0.00175634 -0.000525365 0)
(-0.00153047 -0.000493168 0)
(-0.0013183 -0.000459684 0)
(-0.00112038 -0.000424986 0)
(-0.000937207 -0.00038917 0)
(-0.000769176 -0.000352354 0)
(-0.000616637 -0.000314681 0)
(-0.000479839 -0.000276354 0)
(-0.000358955 -0.000237616 0)
(-0.000254066 -0.000198761 0)
(-0.000165092 -0.000160163 0)
(-9.17947e-05 -0.000122267 0)
(-3.37544e-05 -8.56057e-05 0)
(9.65631e-06 -5.08335e-05 0)
(3.9298e-05 -1.87442e-05 0)
(5.63197e-05 9.71251e-06 0)
(6.22009e-05 3.34116e-05 0)
(5.87577e-05 5.10319e-05 0)
(4.81587e-05 6.11067e-05 0)
(3.27529e-05 6.2054e-05 0)
(1.59978e-05 5.17186e-05 0)
(4.26834e-06 2.46533e-05 0)
(-1.35441e-06 -1.29556e-05 0)
(8.68212e-07 -4.36751e-05 0)
(5.80316e-06 -6.80556e-05 0)
(1.08087e-05 -7.3338e-05 0)
(1.10433e-05 -6.15158e-05 0)
(2.74643e-06 -3.64481e-05 0)
(-1.67473e-05 -1.12819e-06 0)
(-4.98459e-05 4.17924e-05 0)
(-9.80596e-05 9.05675e-05 0)
(-0.000162823 0.000143388 0)
(-0.000244996 0.000199206 0)
(-0.000345118 0.000256783 0)
(-0.000463683 0.000315476 0)
(-0.00060073 0.000374404 0)
(-0.000756269 0.000433109 0)
(-0.000930198 0.000490992 0)
(-0.00112208 0.000547676 0)
(-0.00133164 0.000602834 0)
(-0.00155847 0.000656079 0)
(-0.00180192 0.000707336 0)
(-0.0020615 0.000756208 0)
(-0.00233659 0.000802712 0)
(-0.00262635 0.000846647 0)
(-0.00293024 0.000887991 0)
(-0.00324747 0.000926579 0)
(-0.00357722 0.000962572 0)
(-0.00391878 0.00099574 0)
(-0.00427129 0.00102626 0)
(-0.00463397 0.00105408 0)
(-0.00500595 0.00107924 0)
(-0.00538649 0.00110177 0)
(-0.00577467 0.00112176 0)
(-0.00616965 0.00113916 0)
(-0.0065707 0.00115411 0)
(-0.00697692 0.00116664 0)
(-0.00738749 0.00117679 0)
(-0.00780167 0.00118463 0)
(-0.00821864 0.00119023 0)
(-0.00863761 0.00119364 0)
(-0.00905782 0.00119493 0)
(-0.0094785 0.00119416 0)
(-0.00989889 0.00119142 0)
(-0.0103182 0.00118678 0)
(-0.0107359 0.00118029 0)
(-0.011151 0.00117202 0)
(-0.011563 0.001162 0)
(-0.0119711 0.00115025 0)
(-0.0123747 0.00113679 0)
(-0.0127731 0.00112165 0)
(-0.0131657 0.00110485 0)
(-0.0135519 0.00108641 0)
(-0.0139312 0.00106634 0)
(-0.0143029 0.00104469 0)
(-0.0146665 0.0010215 0)
(-0.0150215 0.000996789 0)
(-0.0153674 0.000970611 0)
(-0.0157037 0.000943015 0)
(-0.01603 0.000914061 0)
(-0.0163457 0.000883819 0)
(-0.0166505 0.000852347 0)
(-0.0169439 0.000819717 0)
(-0.0172254 0.000786008 0)
(-0.0174947 0.000751264 0)
(-0.0177515 0.000715533 0)
(-0.0179953 0.000678874 0)
(-0.0182257 0.000641329 0)
(-0.0184426 0.000602949 0)
(-0.0186455 0.000563787 0)
(-0.0188342 0.000523881 0)
(-0.0190084 0.000483265 0)
(-0.0191678 0.000441974 0)
(-0.0193123 0.000400024 0)
(-0.0194415 0.000357434 0)
(-0.0195555 0.000314239 0)
(-0.0196538 0.000270474 0)
(-0.0197365 0.000226169 0)
(-0.0198035 0.000181363 0)
(-0.0198545 0.000136098 0)
(-0.0198896 9.04281e-05 0)
(-0.0199087 4.44251e-05 0)
(-0.0199117 -1.84531e-06 0)
(-0.0198987 -4.83223e-05 0)
(-0.0198696 -9.4925e-05 0)
(-0.0198244 -0.000141567 0)
(-0.0197632 -0.00018818 0)
(-0.0196861 -0.000234684 0)
(-0.0195932 -0.000280975 0)
(-0.0194845 -0.000326957 0)
(-0.0193602 -0.000372545 0)
(-0.0192204 -0.000417646 0)
(-0.0190653 -0.000462163 0)
(-0.0188951 -0.000506023 0)
(-0.0187099 -0.000549163 0)
(-0.0185101 -0.000591502 0)
(-0.0182958 -0.000632955 0)
(-0.0180674 -0.000673457 0)
(-0.017825 -0.000712959 0)
(-0.0175691 -0.000751411 0)
(-0.0172999 -0.000788765 0)
(-0.0170179 -0.000824984 0)
(-0.0167234 -0.000860036 0)
(-0.0164168 -0.000893883 0)
(-0.0160986 -0.000926483 0)
(-0.0157692 -0.000957791 0)
(-0.0154291 -0.000987761 0)
(-0.0150789 -0.00101634 0)
(-0.014719 -0.00104347 0)
(-0.0143501 -0.00106909 0)
(-0.0139728 -0.00109312 0)
(-0.0135875 -0.00111547 0)
(-0.0131951 -0.00113607 0)
(-0.012796 -0.0011548 0)
(-0.0123911 -0.00117158 0)
(-0.0119808 -0.00118631 0)
(-0.0115659 -0.00119892 0)
(-0.0111471 -0.00120933 0)
(-0.0107252 -0.00121747 0)
(-0.0103007 -0.00122329 0)
(-0.00987461 -0.00122673 0)
(-0.00944751 -0.00122776 0)
(-0.00902023 -0.00122636 0)
(-0.00859356 -0.0012225 0)
(-0.00816828 -0.00121618 0)
(-0.00774521 -0.00120739 0)
(-0.0073252 -0.00119614 0)
(-0.0069091 -0.00118243 0)
(-0.00649775 -0.00116625 0)
(-0.00609202 -0.00114761 0)
(-0.00569276 -0.00112648 0)
(-0.00530082 -0.00110289 0)
(-0.00491709 -0.00107684 0)
(-0.00454239 -0.00104834 0)
(-0.00417759 -0.00101738 0)
(-0.00382353 -0.000983995 0)
(-0.00348103 -0.000948203 0)
(-0.00315088 -0.000910058 0)
(-0.00283385 -0.00086962 0)
(-0.00253072 -0.000826969 0)
(-0.00224221 -0.000782193 0)
(-0.00196907 -0.000735397 0)
(-0.00171192 -0.000686712 0)
(-0.00147141 -0.000636272 0)
(-0.00124808 -0.000584222 0)
(-0.0010424 -0.000530761 0)
(-0.000854756 -0.00047612 0)
(-0.000685429 -0.000420593 0)
(-0.000534599 -0.000364547 0)
(-0.000402341 -0.000308407 0)
(-0.000288563 -0.000252693 0)
(-0.000192981 -0.000198026 0)
(-0.000115119 -0.000145147 0)
(-5.42862e-05 -9.49518e-05 0)
(-9.54384e-06 -4.85055e-05 0)
(2.03427e-05 -7.05895e-06 0)
(3.69286e-05 2.79401e-05 0)
(4.21369e-05 5.48029e-05 0)
(3.82549e-05 7.1671e-05 0)
(2.77603e-05 7.65514e-05 0)
(1.4201e-05 6.65513e-05 0)
(3.95087e-06 3.31959e-05 0)
(-1.93805e-06 -1.23626e-05 0)
(-2.31596e-06 -4.47007e-05 0)
(-2.88605e-06 -7.01382e-05 0)
(-5.7113e-06 -7.18327e-05 0)
(-1.53019e-05 -5.2415e-05 0)
(-3.55744e-05 -1.63956e-05 0)
(-6.92973e-05 3.22428e-05 0)
(-0.000118553 9.07048e-05 0)
(-0.000185203 0.000156314 0)
(-0.000270465 0.000227268 0)
(-0.000375269 0.000301874 0)
(-0.000500377 0.000378837 0)
(-0.000646058 0.000457094 0)
(-0.000812517 0.000535744 0)
(-0.000999715 0.000613992 0)
(-0.00120745 0.000691263 0)
(-0.00143547 0.000766976 0)
(-0.0016834 0.000840681 0)
(-0.00195061 0.000912046 0)
(-0.00223668 0.000980706 0)
(-0.00254088 0.00104646 0)
(-0.00286245 0.00110908 0)
(-0.00320081 0.00116844 0)
(-0.00355506 0.00122434 0)
(-0.00392433 0.00127687 0)
(-0.00430787 0.00132575 0)
(-0.00470476 0.00137118 0)
(-0.00511408 0.00141298 0)
(-0.00553496 0.00145123 0)
(-0.00596642 0.00148597 0)
(-0.00640757 0.00151714 0)
(-0.00685749 0.00154494 0)
(-0.00731519 0.00156925 0)
(-0.00777972 0.00159023 0)
(-0.00825022 0.00160792 0)
(-0.0087257 0.00162235 0)
(-0.00920525 0.00163361 0)
(-0.00968799 0.00164177 0)
(-0.010173 0.00164691 0)
(-0.0106594 0.00164911 0)
(-0.0111464 0.00164845 0)
(-0.0116329 0.00164502 0)
(-0.0121183 0.00163888 0)
(-0.0126016 0.0016301 0)
(-0.0130821 0.00161877 0)
(-0.0135588 0.00160494 0)
(-0.0140311 0.00158866 0)
(-0.0144981 0.00156996 0)
(-0.0149591 0.0015489 0)
(-0.0154134 0.00152551 0)
(-0.0158604 0.00149984 0)
(-0.0162992 0.00147194 0)
(-0.0167293 0.00144185 0)
(-0.01715 0.00140964 0)
(-0.0175607 0.00137534 0)
(-0.0179609 0.00133904 0)
(-0.0183499 0.00130082 0)
(-0.0187273 0.00126073 0)
(-0.0190925 0.00121886 0)
(-0.0194449 0.00117529 0)
(-0.0197841 0.00113011 0)
(-0.0201096 0.0010834 0)
(-0.020421 0.00103524 0)
(-0.0207178 0.000985693 0)
(-0.0209995 0.000934831 0)
(-0.0212658 0.000882733 0)
(-0.0215163 0.000829453 0)
(-0.0217507 0.000775059 0)
(-0.0219686 0.000719624 0)
(-0.0221696 0.000663203 0)
(-0.0223536 0.000605845 0)
(-0.0225203 0.000547595 0)
(-0.0226694 0.0004885 0)
(-0.0228007 0.000428617 0)
(-0.022914 0.000368001 0)
(-0.0230092 0.000306702 0)
(-0.0230862 0.000244788 0)
(-0.0231447 0.000182334 0)
(-0.0231848 0.000119409 0)
(-0.0232064 5.60951e-05 0)
(-0.0232095 -7.51349e-06 0)
(-0.0231939 -7.13284e-05 0)