/*--------------------------------*- C++ -*----------------------------------*\
  =========                 |
  \\      /  F ield         | OpenFOAM: The Open Source CFD Toolbox
   \\    /   O peration     | Website:  https://openfoam.org
    \\  /    A nd           | Version:  7
     \\/     M anipulation  |
\*---------------------------------------------------------------------------*/
FoamFile
{
    version     2.0;
    format      ascii;
    class       volScalarField;
    location    "0.25";
    object      p;
}
// * * * * * * * * * * * * * * * * * * * * * * * * * * * * * * * * * * * * * //

dimensions      [0 2 -2 0 0 0 0];

internalField   nonuniform List<scalar> 
25600
(
2.11196e-07
0.000106654
0.000127312
1.15845e-05
-0.000247749
-0.000647153
-0.00117604
-0.00181998
-0.0025634
-0.00339116
-0.00428876
-0.00524273
-0.00624066
-0.00727092
-0.00832286
-0.00938676
-0.0104535
-0.0115149
-0.0125634
-0.013592
-0.0145943
-0.0155645
-0.0164974
-0.0173882
-0.0182326
-0.0190265
-0.0197664
-0.0204491
-0.0210717
-0.0216317
-0.0221267
-0.0225548
-0.0229142
-0.0232034
-0.0234212
-0.0235665
-0.0236385
-0.0236365
-0.02356
-0.0234088
-0.0231828
-0.0228819
-0.0225063
-0.0220565
-0.0215327
-0.0209357
-0.0202661
-0.0195248
-0.0187127
-0.0178308
-0.0168804
-0.0158626
-0.0147788
-0.0136304
-0.012419
-0.0111462
-0.00981354
-0.00842291
-0.00697608
-0.00547496
-0.00392153
-0.0023178
-0.000665854
0.00103217
0.00277407
0.00455756
0.00638035
0.0082401
0.0101344
0.0120608
0.0140168
0.0159999
0.0180076
0.0200371
0.022086
0.0241515
0.026231
0.0283217
0.0304209
0.0325259
0.0346339
0.036742
0.0388476
0.0409479
0.0430399
0.0451209
0.0471881
0.0492387
0.0512698
0.0532787
0.0552627
0.057219
0.0591448
0.0610374
0.0628943
0.0647126
0.06649
0.0682237
0.0699113
0.0715503
0.0731383
0.0746731
0.0761523
0.0775738
0.0789354
0.0802351
0.081471
0.0826411
0.0837438
0.0847775
0.0857405
0.0866315
0.0874491
0.0881923
0.0888599
0.0894511
0.0899651
0.0904014
0.0907595
0.0910392
0.0912404
0.0913631
0.0914077
0.0913747
0.0912648
0.0910788
0.090818
0.0904836
0.0900773
0.089601
0.0890567
0.088447
0.0877745
0.0870421
0.0862534
0.0854118
0.0845215
0.0835869
0.0826127
0.0816042
0.080567
0.0795074
0.078432
0.077348
0.0762633
0.0751863
0.0741262
0.0730929
0.072097
0.0711501
0.0702645
0.0694534
0.0687307
0.0681109
0.0676084
0.0672363
0.067004
0.0669133
0.0669533
0.0670684
-0.0001173
-1.04212e-05
-1.25289e-05
-0.000139372
-0.00038653
-0.000752572
-0.00123103
-0.00181144
-0.00248175
-0.00322967
-0.00404299
-0.00491003
-0.00581974
-0.00676166
-0.00772598
-0.00870357
-0.00968592
-0.0106652
-0.0116342
-0.0125863
-0.0135153
-0.0144156
-0.015282
-0.0161099
-0.016895
-0.0176334
-0.0183215
-0.0189562
-0.0195346
-0.0200541
-0.0205124
-0.0209075
-0.0212377
-0.0215013
-0.0216972
-0.0218241
-0.0218812
-0.0218678
-0.0217834
-0.0216276
-0.0214002
-0.0211012
-0.0207307
-0.0202891
-0.0197765
-0.0191936
-0.0185411
-0.0178197
-0.0170302
-0.0161736
-0.015251
-0.0142636
-0.0132126
-0.0120995
-0.0109256
-0.00969242
-0.00840164
-0.0070549
-0.00565395
-0.00420062
-0.00269681
-0.00114444
0.000454473
0.00209788
0.00378364
0.00550959
0.0072735
0.00907309
0.010906
0.01277
0.0146625
0.0165812
0.0185236
0.0204872
0.0224694
0.0244676
0.0264792
0.0285017
0.0305324
0.0325686
0.0346077
0.0366469
0.0386835
0.0407149
0.0427383
0.0447511
0.0467504
0.0487335
0.0506979
0.0526408
0.0545594
0.0564513
0.0583137
0.060144
0.0619397
0.0636982
0.065417
0.0670937
0.0687259
0.0703112
0.0718474
0.0733321
0.0747632
0.0761387
0.0774565
0.0787146
0.0799113
0.0810447
0.0821133
0.0831154
0.0840496
0.0849146
0.0857091
0.0864322
0.0870828
0.0876602
0.0881636
0.0885925
0.0889467
0.0892258
0.0894299
0.0895592
0.0896139
0.0895947
0.0895022
0.0893375
0.0891016
0.088796
0.0884223
0.0879823
0.0874783
0.0869126
0.086288
0.0856073
0.0848739
0.0840914
0.0832637
0.0823952
0.0814905
0.0805548
0.0795934
0.0786125
0.0776183
0.0766179
0.0756186
0.0746284
0.073656
0.0727104
0.0718015
0.0709397
0.0701358
0.0694014
0.0687481
0.0681875
0.0677308
0.0673871
0.0671617
0.0670548
0.0670684
0.0671836
-0.000154091
-2.07747e-05
-2.05794e-05
-0.00014705
-0.000383407
-0.000726403
-0.00117061
-0.00170704
-0.00232564
-0.00301586
-0.00376726
-0.00456945
-0.00541245
-0.00628677
-0.00718335
-0.00809365
-0.00900975
-0.00992418
-0.01083
-0.011721
-0.0125911
-0.013435
-0.0142477
-0.0150245
-0.0157614
-0.0164544
-0.0171002
-0.0176955
-0.0182375
-0.0187237
-0.0191517
-0.0195195
-0.0198254
-0.0200678
-0.0202454
-0.020357
-0.0204017
-0.0203788
-0.0202877
-0.020128
-0.0198995
-0.0196021
-0.0192359
-0.0188011
-0.0182979
-0.0177269
-0.0170886
-0.0163838
-0.0156133
-0.0147779
-0.0138787
-0.0129169
-0.0118935
-0.0108099
-0.00966754
-0.00846782
-0.00721228
-0.00590251
-0.00454022
-0.00312716
-0.00166515
-0.00015607
0.00139814
0.00299549
0.00463391
0.0063113
0.00802553
0.00977438
0.0115556
0.0133668
0.0152058
0.0170702
0.0189576
0.0208654
0.0227913
0.0247328
0.0266873
0.0286523
0.0306252
0.0326034
0.0345843
0.0365654
0.0385439
0.0405173
0.0424829
0.0444381
0.0463802
0.0483067
0.0502148
0.0521021
0.0539658
0.0558035
0.0576125
0.0593905
0.0611348
0.062843
0.0645127
0.0661416
0.0677273
0.0692675
0.0707601
0.0722028
0.0735937
0.0749306
0.0762116
0.077435
0.0785989
0.0797016
0.0807416
0.0817173
0.0826275
0.0834708
0.0842461
0.0849524
0.0855888
0.0861546
0.0866492
0.087072
0.0874228
0.0877015
0.0879081
0.0880428
0.0881059
0.088098
0.08802
0.0878727
0.0876575
0.0873756
0.0870287
0.0866187
0.0861477
0.0856181
0.0850325
0.084394
0.0837057
0.0829712
0.0821943
0.0813793
0.0805306
0.0796534
0.0787527
0.0778345
0.0769048
0.0759703
0.075038
0.0741154
0.0732107
0.0723322
0.0714891
0.0706908
0.0699471
0.0692681
0.0686639
0.0681444
0.0677189
0.0673952
0.0671776
0.0670681
0.0670818
0.0672237
-5.30697e-05
9.48269e-05
9.80548e-05
-2.72739e-05
-0.000256935
-0.000585662
-0.00100748
-0.00151407
-0.00209637
-0.00274501
-0.00345058
-0.00420376
-0.00499555
-0.00581715
-0.00666018
-0.00751679
-0.00837943
-0.0092411
-0.0100953
-0.0109358
-0.0117571
-0.012554
-0.0133217
-0.0140556
-0.0147517
-0.0154064
-0.0160161
-0.0165779
-0.0170888
-0.0175464
-0.0179484
-0.0182928
-0.0185778
-0.0188019
-0.0189637
-0.019062
-0.019096
-0.0190649
-0.018968
-0.0188049
-0.0185754
-0.0182795
-0.0179169
-0.017488
-0.0169931
-0.0164325
-0.0158068
-0.0151166
-0.0143628
-0.0135461
-0.0126675
-0.0117281
-0.0107291
-0.0096716
-0.00855704
-0.00738679
-0.00616233
-0.0048852
-0.00355704
-0.00217957
-0.000754512
0.000716317
0.00223102
0.00378766
0.00538423
0.00701871
0.00868901
0.010393
0.0121284
0.0138931
0.0156847
0.0175011
0.0193397
0.0211983
0.0230745
0.0249658
0.0268697
0.0287839
0.0307057
0.0326327
0.0345622
0.0364919
0.0384192
0.0403413
0.0422559
0.0441603
0.046052
0.0479284
0.049787
0.0516252
0.0534405
0.0552304
0.0569925
0.0587243
0.0604233
0.0620873
0.0637138
0.0653006
0.0668454
0.068346
0.0698003
0.0712062
0.0725617
0.0738648
0.0751136
0.0763065
0.0774416
0.0785174
0.0795324
0.0804851
0.0813742
0.0821985
0.082957
0.0836487
0.0842727
0.0848284
0.0853152
0.0857326
0.0860806
0.0863588
0.0865674
0.0867067
0.086777
0.0867789
0.0867133
0.0865811
0.0863835
0.0861219
0.0857979
0.0854134
0.0849706
0.0844717
0.0839194
0.0833166
0.0826664
0.0819723
0.0812381
0.0804679
0.079666
0.0788373
0.0779868
0.0771201
0.0762431
0.0753621
0.0744837
0.0736151
0.0727638
0.0719377
0.0711452
0.0703949
0.0696957
0.0690568
0.0684872
0.0679956
0.0675906
0.0672796
0.0670673
0.066958
0.0669749
0.0671335
0.000194726
0.000332622
0.000327007
0.000196596
-3.25963e-05
-0.000353754
-0.00076087
-0.00124582
-0.00180032
-0.00241604
-0.00308435
-0.00379691
-0.00454547
-0.00532193
-0.00611863
-0.00692818
-0.00774359
-0.00855832
-0.00936616
-0.0101613
-0.0109385
-0.0116926
-0.012419
-0.0131136
-0.0137722
-0.0143914
-0.0149678
-0.0154984
-0.0159804
-0.0164114
-0.0167891
-0.0171115
-0.017377
-0.0175839
-0.0177308
-0.0178167
-0.0178406
-0.0178017
-0.0176994
-0.0175332
-0.0173029
-0.0170083
-0.0166494
-0.0162263
-0.0157392
-0.0151886
-0.014575
-0.0138989
-0.013161
-0.0123622
-0.0115034
-0.0105857
-0.00960997
-0.00857758
-0.00748977
-0.00634785
-0.00515326
-0.00390752
-0.0026122
-0.00126894
0.000120583
0.00155459
0.00303126
0.00454872
0.00610502
0.0076982
0.00932621
0.010987
0.0126783
0.0143981
0.0161442
0.0179143
0.0197061
0.0215173
0.0233456
0.0251886
0.0270439
0.0289092
0.0307818
0.0326595
0.0345397
0.03642
0.0382979
0.0401708
0.0420364
0.043892
0.0457352
0.0475635
0.0493745
0.0511656
0.0529344
0.0546785
0.0563955
0.058083
0.0597387
0.0613603
0.0629454
0.0644918
0.0659974
0.0674601
0.0688778
0.0702484
0.07157
0.0728408
0.0740589
0.0752226
0.0763303
0.0773803
0.0783714
0.079302
0.0801711
0.0809773
0.0817197
0.0823974
0.0830096
0.0835556
0.0840349
0.0844473
0.0847923
0.08507
0.0852805
0.085424
0.085501
0.0855121
0.085458
0.0853398
0.0851586
0.0849159
0.0846133
0.0842526
0.0838359
0.0833655
0.082844
0.0822741
0.0816591
0.0810022
0.0803071
0.0795778
0.0788185
0.0780338
0.0772287
0.0764084
0.0755785
0.074745
0.0739142
0.0730928
0.0722878
0.0715065
0.0707567
0.0700464
0.0693835
0.0687764
0.0682332
0.067762
0.0673706
0.0670662
0.0668542
0.06674
0.0667498
0.0669023
0.000584581
0.000690824
0.000663519
0.000519709
0.000283814
-3.72319e-05
-0.000437052
-0.000908286
-0.00144315
-0.00203401
-0.00267317
-0.00335296
-0.00406585
-0.0048045
-0.00556179
-0.00633086
-0.00710524
-0.0078788
-0.0086457
-0.00940048
-0.0101381
-0.0108538
-0.011543
-0.0122019
-0.0128264
-0.0134132
-0.0139591
-0.0144611
-0.0149165
-0.0153229
-0.0156781
-0.0159803
-0.0162276
-0.0164185
-0.0165517
-0.0166261
-0.0166407
-0.0165946
-0.0164873
-0.0163183
-0.0160873
-0.0157941
-0.0154387
-0.0150211
-0.0145416
-0.0140006
-0.0133984
-0.0127357
-0.0120132
-0.0112315
-0.0103916
-0.00949447
-0.00854111
-0.00753268
-0.0064704
-0.00535557
-0.00418956
-0.00297383
-0.00170989
-0.00039934
0.000956191
0.00235499
0.00379529
0.00527525
0.00679303
0.00834668
0.00993424
0.0115537
0.0132029
0.0148798
0.0165822
0.0183081
0.0200551
0.021821
0.0236034
0.0254003
0.0272091
0.0290275
0.0308532
0.0326837
0.0345167
0.0363498
0.0381806
0.0400065
0.0418251
0.0436342
0.0454311
0.0472135
0.048979
0.0507252
0.0524497
0.0541501
0.0558241
0.0574695
0.0590838
0.0606649
0.0622106
0.0637186
0.065187
0.0666136
0.0679964
0.0693334
0.0706229
0.0718629
0.0730517
0.0741877
0.0752693
0.076295
0.0772633
0.0781731
0.079023
0.079812
0.0805392
0.0812036
0.0818045
0.0823413
0.0828135
0.0832209
0.0835631
0.0838402
0.0840524
0.0841997
0.0842828
0.0843022
0.0842588
0.0841535
0.0839875
0.0837623
0.0834793
0.0831405
0.0827478
0.0823035
0.0818101
0.0812704
0.0806874
0.0800643
0.0794047
0.0787123
0.0779914
0.0772462
0.0764815
0.0757023
0.0749139
0.074122
0.0733325
0.0725516
0.071786
0.0710423
0.0703278
0.0696497
0.0690153
0.0684323
0.067908
0.0674499
0.0670651
0.0667606
0.0665421
0.0664157
0.0664063
0.0665319
0.00110539
0.00116288
0.00110241
0.000937048
0.000686707
0.000358402
-4.17786e-05
-0.000506868
-0.00102985
-0.00160375
-0.0022215
-0.00287616
-0.00356082
-0.00426877
-0.00499347
-0.00572861
-0.00646818
-0.00720639
-0.00793785
-0.00865743
-0.00936034
-0.010042
-0.0106983
-0.0113252
-0.0119193
-0.0124769
-0.0129952
-0.0134713
-0.0139026
-0.0142867
-0.0146215
-0.0149051
-0.0151359
-0.0153122
-0.0154329
-0.0154967
-0.0155027
-0.0154501
-0.0153383
-0.0151668
-0.0149353
-0.0146435
-0.0142915
-0.0138793
-0.0134071
-0.0128751
-0.0122839
-0.011634
-0.0109259
-0.0101605
-0.00933854
-0.00846094
-0.00752873
-0.00654301
-0.00550495
-0.00441579
-0.00327688
-0.00208961
-0.000855459
0.000424062
0.00174735
0.00311274
0.00451852
0.00596292
0.00744414
0.00896029
0.0105094
0.0120896
0.0136988
0.015335
0.0169961
0.01868
0.0203844
0.0221073
0.0238463
0.0255993
0.027364
0.0291381
0.0309192
0.0327051
0.0344933
0.0362817
0.0380677
0.0398491
0.0416234
0.0433883
0.0451414
0.0468803
0.0486028
0.0503065
0.051989
0.0536481
0.0552815
0.056887
0.0584622
0.0600051
0.0615135
0.0629853
0.0644185
0.065811
0.067161
0.0684664
0.0697255
0.0709365
0.0720978
0.0732077
0.0742647
0.0752674
0.0762143
0.0771044
0.0779363
0.0787091
0.0794219
0.0800737
0.080664
0.0811921
0.0816576
0.0820601
0.0823996
0.082676
0.0828895
0.0830403
0.0831288
0.0831558
0.0831221
0.0830285
0.0828763
0.0826669
0.0824018
0.0820827
0.0817117
0.0812911
0.0808231
0.0803105
0.0797562
0.0791634
0.0785354
0.0778759
0.0771888
0.0764784
0.0757491
0.0750056
0.0742531
0.0734968
0.0727423
0.0719954
0.0712623
0.0705492
0.0698626
0.0692093
0.068596
0.0680295
0.0675167
0.0670644
0.0666792
0.0663677
0.0661356
0.0659891
0.0659496
0.0660312
0.00174324
0.00173904
0.00163563
0.00144086
0.00116888
0.000826163
0.000418564
-4.74763e-05
-0.000565677
-0.00112967
-0.00173303
-0.00236947
-0.0030327
-0.00371651
-0.00441492
-0.00512217
-0.00583263
-0.00654099
-0.00724218
-0.00793139
-0.00860411
-0.00925608
-0.00988332
-0.0104821
-0.0110489
-0.0115806
-0.0120743
-0.0125271
-0.0129366
-0.0133006
-0.0136169
-0.0138838
-0.0140995
-0.0142626
-0.0143718
-0.014426
-0.0144243
-0.0143658
-0.01425
-0.0140764
-0.0138446
-0.0135544
-0.0132057
-0.0127986
-0.0123334
-0.0118101
-0.0112293
-0.0105915
-0.00989721
-0.00914717
-0.00834217
-0.00748313
-0.00657099
-0.00560679
-0.00459167
-0.00352685
-0.00241362
-0.00125333
-4.73905e-05
0.00120271
0.00249543
0.00382914
0.0052022
0.00661289
0.00805944
0.00954003
0.0110528
0.0125958
0.014167
0.0157646
0.0173865
0.0190305
0.0206947
0.0223767
0.0240746
0.0257861
0.027509
0.029241
0.0309799
0.0327235
0.0344694
0.0362154
0.0379591
0.0396982
0.0414306
0.0431537
0.0448653
0.0465632
0.0482451
0.0499085
0.0515514
0.0531715
0.0547665
0.0563343
0.0578727
0.0593796
0.0608528
0.0622904
0.0636904
0.0650509
0.0663698
0.0676454
0.0688759
0.0700597
0.071195
0.0722803
0.0733142
0.0742952
0.0752221
0.0760935
0.0769086
0.0776661
0.0783653
0.0790053
0.0795855
0.0801053
0.0805644
0.0809623
0.0812991
0.0815747
0.0817892
0.0819429
0.0820363
0.0820701
0.082045
0.081962
0.0818223
0.0816271
0.0813781
0.0810769
0.0807254
0.0803259
0.0798807
0.0793924
0.0788637
0.0782977
0.0776976
0.077067
0.0764096
0.0757295
0.0750308
0.0743181
0.0735961
0.0728698
0.0721445
0.0714255
0.0707185
0.0700294
0.0693642
0.0687289
0.0681297
0.067573
0.067065
0.0666117
0.0662195
0.0658943
0.0656417
0.0654678
0.0653884
0.065413
0.00248345
0.00240804
0.0022538
0.00202284
0.00172257
0.00135897
0.000937585
0.000464098
-5.57807e-05
-0.00061627
-0.00121164
-0.00183613
-0.00248401
-0.00314967
-0.00382762
-0.00451252
-0.00519919
-0.00588277
-0.0065585
-0.00722189
-0.0078687
-0.00849495
-0.00909689
-0.00967095
-0.0102139
-0.0107226
-0.0111943
-0.0116264
-0.0120165
-0.0123624
-0.0126621
-0.0129139
-0.0131161
-0.0132673
-0.0133662
-0.0134118
-0.0134032
-0.0133395
-0.0132202
-0.0130448
-0.0128129
-0.0125243
-0.012179
-0.0117769
-0.0113183
-0.0108033
-0.0102325
-0.00960615
-0.00892494
-0.0081895
-0.00740062
-0.00655915
-0.00566601
-0.0047222
-0.00372883
-0.00268707
-0.00159816
-0.000463416
0.000715796
0.00193803
0.00320178
0.00450549
0.00584756
0.00722631
0.00864002
0.0100869
0.0115652
0.0130729
0.0146083
0.0161693
0.017754
0.0193603
0.0209863
0.0226298
0.0242886
0.0259608
0.0276441
0.0293363
0.0310353
0.0327388
0.0344447
0.0361506
0.0378543
0.0395536
0.0412462
0.0429299
0.0446024
0.0462615
0.0479049
0.0495304
0.0511359
0.0527191
0.054278
0.0558102
0.0573138
0.0587867
0.0602269
0.0616323
0.0630011
0.0643313
0.065621
0.0668686
0.0680722
0.0692303
0.0703412
0.0714034
0.0724155
0.0733762
0.0742841
0.0751382
0.0759373
0.0766805
0.0773669
0.0779957
0.0785664
0.0790784
0.0795313
0.0799248
0.0802588
0.0805334
0.0807487
0.0809049
0.0810026
0.0810424
0.0810251
0.0809515
0.0808229
0.0806405
0.0804058
0.0801205
0.0797865
0.0794059
0.0789809
0.078514
0.0780079
0.0774654
0.0768899
0.0762845
0.0756528
0.0749987
0.0743262
0.0736395
0.0729431
0.0722417
0.0715401
0.0708434
0.0701568
0.0694857
0.0688357
0.0682122
0.0676211
0.0670679
0.0665584
0.0660981
0.0656928
0.0653477
0.0650683
0.0648601
0.064733
0.0646909
0.00331186
0.00315838
0.00294717
0.00267424
0.00233989
0.00194963
0.00150867
0.00102198
0.000494642
-6.81677e-05
-0.00066129
-0.00127951
-0.00191766
-0.00257065
-0.00323343
-0.00390111
-0.00456897
-0.00523247
-0.00588723
-0.00652907
-0.00715403
-0.00775836
-0.00833854
-0.00889121
-0.00941333
-0.00990195
-0.0103544
-0.0107682
-0.0111411
-0.011471
-0.0117559
-0.0119942
-0.0121843
-0.0123249
-0.0124146
-0.0124526
-0.0124378
-0.0123696
-0.0122473
-0.0120704
-0.0118387
-0.0115519
-0.0112098
-0.0108126
-0.0103604
-0.00985342
-0.00929201
-0.00867664
-0.00800784
-0.00728626
-0.00651265
-0.00568782
-0.00481265
-0.00388814
-0.00291534
-0.00189539
-0.000829498
0.000281081
0.00143501
0.00263089
0.00386724
0.00514258
0.00645533
0.00780388
0.00918653
0.0106015
0.0120472
0.0135216
0.015023
0.0165494
0.018099
0.0196697
0.0212595
0.0228665
0.0244886
0.0261236
0.0277695
0.0294241
0.0310854
0.0327511
0.0344191
0.0360871
0.0377531
0.0394148
0.0410699
0.0427164
0.044352
0.0459744
0.0475817
0.0491715
0.0507417
0.0522902
0.053815
0.0553138
0.0567847
0.0582257
0.0596347
0.0610098
0.0623492
0.063651
0.0649134
0.0661346
0.067313
0.0684469
0.0695349
0.0705755
0.0715672
0.0725088
0.073399
0.0742367
0.0750208
0.0757505
0.0764249
0.0770432
0.0776049
0.0781094
0.0785564
0.0789456
0.0792769
0.0795504
0.0797661
0.0799245
0.0800258
0.0800709
0.0800603
0.0799951
0.0798763
0.0797052
0.0794833
0.0792121
0.0788935
0.0785295
0.0781222
0.0776741
0.0771877
0.0766659
0.0761114
0.0755277
0.074918
0.074286
0.0736355
0.0729704
0.0722949
0.0716135
0.0709306
0.070251
0.0695794
0.0689209
0.0682805
0.0676633
0.0670745
0.0665192
0.0660026
0.0655297
0.0651056
0.0647352
0.0644233
0.0641754
0.0639943
0.0638783
0.00421499
0.00397875
0.0037058
0.00338619
0.00301296
0.00259102
0.0021254
0.00162041
0.00108043
0.000510062
-8.60097e-05
-0.000703136
-0.00133666
-0.00198196
-0.00263443
-0.00328965
-0.00394327
-0.00459108
-0.00522906
-0.00585333
-0.00646023
-0.00704621
-0.00760799
-0.00814246
-0.00864668
-0.00911792
-0.00955363
-0.00995149
-0.0103093
-0.0106251
-0.010897
-0.0111235
-0.0113029
-0.0114341
-0.0115158
-0.011547
-0.0115269
-0.0114548
-0.01133
-0.0111521
-0.0109207
-0.0106357
-0.010297
-0.00990456
-0.00945851
-0.00895913
-0.00840674
-0.00780177
-0.00714474
-0.00643629
-0.00567713
-0.00486803
-0.00400987
-0.00310358
-0.00215023
-0.00115089
-0.000106722
0.000981042
0.0021111
0.00328207
0.00449257
0.00574112
0.00702619
0.00834621
0.00969953
0.0110845
0.0124993
0.0139423
0.0154116
0.0169054
0.0184218
0.0199589
0.0215147
0.0230872
0.0246745
0.0262745
0.0278851
0.0295043
0.03113
0.03276
0.0343924
0.0360248
0.0376552
0.0392814
0.0409013
0.0425127
0.0441136
0.0457016
0.0472748
0.048831
0.0503681
0.051884
0.0533768
0.0548442
0.0562844
0.0576953
0.0590751
0.0604219
0.0617338
0.0630089
0.0642456
0.0654421
0.0665969
0.0677083
0.0687748
0.0697951
0.0707677
0.0716914
0.0725649
0.0733873
0.0741574
0.0748745
0.0755375
0.076146
0.0766991
0.0771966
0.077638
0.078023
0.0783516
0.0786238
0.0788398
0.0789998
0.0791042
0.0791538
0.0791492
0.0790912
0.0789811
0.0788199
0.0786091
0.0783503
0.0780451
0.0776956
0.0773037
0.0768719
0.0764025
0.0758982
0.0753618
0.0747964
0.0742051
0.0735915
0.0729589
0.0723113
0.0716525
0.0709865
0.0703177
0.0696503
0.0689889
0.0683379
0.067702
0.0670859
0.0664943
0.0659318
0.0654031
0.0649126
0.0644649
0.0640642
0.0637151
0.0634227
0.0631828
0.062988
0.00518043
0.00485824
0.00452011
0.00415011
0.00373389
0.00327605
0.0027814
0.00225358
0.00169637
0.00111386
0.000510162
-0.00011055
-0.000744061
-0.00138621
-0.00203287
-0.00267998
-0.00332355
-0.00395974
-0.00458485
-0.00519529
-0.00578764
-0.00635863
-0.0069052
-0.00742443
-0.00791355
-0.00837
-0.00879141
-0.00917554
-0.00952034
-0.0098239
-0.0100845
-0.0103006
-0.0104708
-0.0105938
-0.0106685
-0.0106939
-0.0106693
-0.0105938
-0.010467
-0.0102884
-0.0100577
-0.00977471
-0.00943926
-0.00905144
-0.00861137
-0.00811928
-0.00757547
-0.00698038
-0.00633452
-0.0056385
-0.00489299
-0.00409875
-0.00325664
-0.00236757
-0.00143255
-0.000452633
0.000571049
0.0016373
0.00274484
0.00389235
0.00507848
0.00630178
0.00756078
0.00885392
0.0101796
0.0115362
0.012922
0.0143354
0.0157745
0.0172375
0.0187227
0.0202281
0.0217518
0.0232919
0.0248465
0.0264135
0.0279909
0.0295768
0.031169
0.0327656
0.0343643
0.0359633
0.0375602
0.0391532
0.0407399
0.0423185
0.0438867
0.0454424
0.0469837
0.0485083
0.0500144
0.0514998
0.0529625
0.0544005
0.0558119
0.0571948
0.0585473
0.0598675
0.0611536
0.0624038
0.0636165
0.0647899
0.0659226
0.0670129
0.0680594
0.0690607
0.0700155
0.0709225
0.0717806
0.0725886
0.0733456
0.0740508
0.0747033
0.0753024
0.0758476
0.0763384
0.0767744
0.0771554
0.0774813
0.0777521
0.077968
0.0781292
0.0782362
0.0782896
0.07829
0.0782383
0.0781356
0.077983
0.0777819
0.0775337
0.0772401
0.076903
0.0765244
0.0761064
0.0756514
0.0751619
0.0746406
0.0740903
0.0735141
0.0729153
0.0722971
0.071663
0.0710168
0.0703622
0.0697031
0.0690436
0.0683877
0.0677397
0.0671037
0.0664841
0.065885
0.0653107
0.0647653
0.0642528
0.0637771
0.0633419
0.0629517
0.062611
0.0623088
0.0620319
0.00619674
0.00578665
0.0053809
0.00495758
0.00449514
0.00399787
0.00347041
0.00291583
0.00233739
0.00173863
0.00112313
0.000494662
-0.000143
-0.000786162
-0.00143106
-0.00207405
-0.00271145
-0.00333979
-0.00395564
-0.0045557
-0.00513682
-0.00569596
-0.0062303
-0.00673708
-0.00721373
-0.00765787
-0.00806726
-0.00843978
-0.00877349
-0.00906665
-0.0093176
-0.00952486
-0.00968706
-0.00980304
-0.00987176
-0.00989227
-0.00986378
-0.00978565
-0.00965733
-0.00947841
-0.00924857
-0.00896762
-0.00863548
-0.00825219
-0.00781788
-0.00733276
-0.00679713
-0.00621143
-0.00557615
-0.00489187
-0.00415925
-0.00337904
-0.00255205
-0.00167919
-0.000761433
0.000200199
0.0012046
0.0022506
0.00333697
0.00446242
0.00562563
0.0068252
0.00805966
0.00932752
0.0106272
0.0119572
0.0133157
0.0147012
0.016112
0.0175461
0.0190019
0.0204776
0.0219712
0.0234808
0.0250047
0.0265407
0.028087
0.0296416
0.0312024
0.0327675
0.0343348
0.0359023
0.0374679
0.0390297
0.0405854
0.0421331
0.0436708
0.0451963
0.0467076
0.0482028
0.0496798
0.0511366
0.0525713
0.0539819
0.0553664
0.0567231
0.0580501
0.0593455
0.0606075
0.0618346
0.0630249
0.0641768
0.0652889
0.0663596
0.0673875
0.0683712
0.0693093
0.0702008
0.0710444
0.0718391
0.0725839
0.073278
0.0739206
0.074511
0.0750487
0.0755331
0.075964
0.0763411
0.0766643
0.0769336
0.0771492
0.0773113
0.0774203
0.0774768
0.0774814
0.0774351
0.0773387
0.0771934
0.0770004
0.0767613
0.0764775
0.0761509
0.0757834
0.075377
0.0749339
0.0744566
0.0739475
0.0734095
0.0728453
0.0722579
0.0716506
0.0710265
0.0703891
0.069742
0.0690887
0.0684329
0.0677785
0.0671293
0.066489
0.0658616
0.0652509
0.0646607
0.0640946
0.0635562
0.0630489
0.0625757
0.062141
0.0617492
0.0613821
0.0610209
0.00725354
0.00675457
0.00627949
0.00580065
0.00528942
0.00474979
0.00418637
0.00360171
0.00299851
0.00237983
0.00174887
0.00110892
0.000463315
-0.000184618
-0.000831465
-0.00147393
-0.00210873
-0.00273268
-0.0033426
-0.00393549
-0.00450847
-0.00505872
-0.00558359
-0.00608054
-0.00654722
-0.00698138
-0.00738089
-0.00774381
-0.00806832
-0.00835277
-0.00859558
-0.00879537
-0.00895087
-0.00906097
-0.00912467
-0.0091411
-0.00910951
-0.00902928
-0.00889991
-0.008721
-0.00849225
-0.0082135
-0.00788468
-0.00750584
-0.00707708
-0.00659862
-0.00607079
-0.00549399
-0.00486871
-0.00419551
-0.00347504
-0.00270802
-0.00189527
-0.00103765
-0.000136106
0.000808357
0.00179466
0.00282166
0.00388815
0.0049929
0.00613461
0.00731191
0.00852337
0.00976752
0.0110428
0.0123478
0.0136808
0.0150402
0.0164243
0.0178314
0.0192597
0.0207074
0.0221728
0.023654
0.025149
0.0266561
0.0281732
0.0296985
0.0312299
0.0327656
0.0343035
0.0358416
0.037378
0.0389105
0.0404373
0.0419562
0.0434653
0.0449626
0.0464461
0.0479138
0.0493637
0.0507939
0.0522025
0.0535875
0.054947
0.0562793
0.0575825
0.0588549
0.0600946
0.0613001
0.0624697
0.0636017
0.0646947
0.0657472
0.0667577
0.067725
0.0686478
0.0695248
0.070355
0.0711373
0.0718708
0.0725546
0.073188
0.0737703
0.0743009
0.0747794
0.0752054
0.0755788
0.0758993
0.076167
0.076382
0.0765446
0.0766551
0.0767141
0.0767223
0.0766803
0.0765891
0.0764499
0.0762638
0.0760322
0.0757565
0.0754386
0.0750802
0.0746832
0.0742497
0.0737821
0.0732827
0.0727541
0.0721989
0.07162
0.0710203
0.0704029
0.0697709
0.0691276
0.0684765
0.0678208
0.067164
0.0665097
0.0658613
0.0652224
0.0645964
0.0639865
0.0633962
0.0628286
0.0622864
0.0617722
0.0612905
0.0608452
0.0604115
0.0599649
0.00834135
0.00775317
0.00720782
0.00667192
0.0061098
0.00552547
0.00492347
0.00430584
0.00367482
0.00303308
0.00238338
0.00172859
0.00107168
0.000415621
-0.000236547
-0.000881841
-0.0015173
-0.00213999
-0.00274707
-0.00333578
-0.00390345
-0.00444752
-0.00496553
-0.00545515
-0.00591417
-0.00634051
-0.00673221
-0.00708742
-0.00740448
-0.00768182
-0.00791797
-0.00811162
-0.00826162
-0.00836691
-0.00842654
-0.0084397
-0.00840568
-0.00832392
-0.00819394
-0.00801536
-0.00778792
-0.00751148
-0.00718599
-0.00681148
-0.00638808
-0.005916
-0.00539558
-0.00482722
-0.00421138
-0.00354861
-0.00283956
-0.00208494
-0.00128555
-0.000442212
0.000444142
0.00137252
0.00234187
0.00335107
0.00439897
0.00548436
0.00660595
0.00776241
0.00895235
0.0101743
0.0114269
0.0127085
0.0140176
0.0153526
0.0167118
0.0180935
0.0194962
0.0209179
0.0223569
0.0238114
0.0252796
0.0267595
0.0282495
0.0297474
0.0312515
0.0327597
0.0342702
0.0357809
0.03729
0.0387954
0.0402952
0.0417873
0.0432699
0.0447409
0.0461985
0.0476407
0.0490654
0.0504709
0.0518552
0.0532165
0.0545528
0.0558626
0.0571438
0.0583948
0.0596139
0.0607994
0.0619497
0.0630633
0.0641387
0.0651744
0.0661689
0.0671211
0.0680297
0.0688934
0.0697112
0.0704821
0.0712051
0.0718794
0.0725042
0.0730789
0.073603
0.0740759
0.0744973
0.074867
0.0751849
0.0754509
0.0756652
0.0758279
0.0759395
0.0760004
0.0760113
0.0759728
0.0758859
0.0757516
0.075571
0.0753455
0.0750765
0.0747655
0.0744142
0.0740246
0.0735986
0.0731384
0.0726462
0.0721243
0.0715754
0.0710021
0.0704071
0.0697932
0.0691635
0.0685208
0.0678684
0.0672094
0.0665469
0.065884
0.0652241
0.0645703
0.0639255
0.0632929
0.0626753
0.0620754
0.0614957
0.0609382
0.0604073
0.0599069
0.0594054
0.0588729
0.00945165
0.00877452
0.00815837
0.00756428
0.00694979
0.00631886
0.00567611
0.00502307
0.00436163
0.00369404
0.0030227
0.00235009
0.00167887
0.00101166
0.000351141
-0.000299997
-0.00093906
-0.00156342
-0.00217048
-0.00275775
-0.00332277
-0.00386318
-0.00437675
-0.00486134
-0.00531489
-0.00573544
-0.00612123
-0.00647055
-0.0067818
-0.00705354
-0.00728441
-0.00747321
-0.00761885
-0.00772033
-0.00777677
-0.00778742
-0.00775163
-0.00766888
-0.0075387
-0.00736076
-0.00713484
-0.00686082
-0.00653865
-0.00616837
-0.00575012
-0.00528415
-0.00477076
-0.00421036
-0.00360341
-0.00295044
-0.00225211
-0.00150911
-0.000722207
0.000107778
0.000979934
0.00189329
0.0028468
0.00383941
0.00486997
0.00593729
0.00704012
0.00817715
0.00934701
0.0105483
0.0117796
0.0130395
0.0143263
0.0156385
0.0169746
0.0183328
0.0197115
0.0211089
0.0225234
0.0239531
0.0253963
0.0268511
0.0283157
0.0297882
0.0312668
0.0327496
0.0342346
0.0357199
0.0372036
0.0386838
0.0401586
0.0416259
0.0430839
0.0445307
0.0459642
0.0473827
0.0487842
0.0501668
0.0515288
0.0528681
0.0541831
0.055472
0.0567329
0.0579643
0.0591643
0.0603315
0.0614641
0.0625608
0.0636199
0.0646401
0.06562
0.0665583
0.0674538
0.0683053
0.0691117
0.0698721
0.0705854
0.071251
0.0718679
0.0724357
0.0729536
0.0734213
0.0738384
0.0742047
0.0745199
0.0747842
0.0749975
0.0751601
0.0752723
0.0753346
0.0753475
0.0753118
0.0752282
0.0750977
0.0749215
0.0747007
0.0744367
0.074131
0.0737852
0.0734011
0.0729806
0.0725255
0.0720382
0.0715207
0.0709756
0.0704052
0.0698121
0.0691989
0.0685684
0.0679234
0.0672667
0.0666012
0.0659297
0.0652553
0.0645808
0.0639089
0.0632425
0.0625843
0.0619367
0.0613021
0.0606826
0.0600797
0.0594981
0.0589414
0.0583715
0.0577532
0.0105767
0.00981123
0.00912413
0.00847116
0.00780321
0.00712418
0.00643885
0.00574841
0.00505434
0.00435849
0.00366297
0.00296995
0.00228172
0.00160062
0.000929008
0.000269316
-0.000376025
-0.00100471
-0.00161437
-0.0022027
-0.0027675
-0.00330661
-0.00381801
-0.00429968
-0.00474976
-0.00516645
-0.00554813
-0.00589322
-0.00620021
-0.00646778
-0.0066947
-0.00687985
-0.00702219
-0.0071208
-0.00717489
-0.00718377
-0.00714683
-0.00706356
-0.00693358
-0.00675658
-0.00653238
-0.00626086
-0.00594198
-0.00557583
-0.00516255
-0.00470239
-0.00419566
-0.00364276
-0.00304415
-0.00240037
-0.00171207
-0.000979913
-0.000204654
0.000612891
0.00147182
0.00237119
0.00330998
0.00428716
0.0053016
0.00635213
0.00743752
0.00855649
0.00970772
0.0108898
0.0121015
0.0133411
0.0146072
0.0158983
0.0172129
0.0185492
0.0199057
0.0212807
0.0226724
0.0240791
0.0254991
0.0269306
0.0283718
0.0298208
0.0312758
0.032735
0.0341964
0.0356582
0.0371186
0.0385755
0.0400271
0.0414715
0.0429069
0.0443312
0.0457427
0.0471394
0.0485195
0.0498811
0.0512224
0.0525416
0.053837
0.0551067
0.0563491
0.0575624
0.058745
0.0598953
0.0610118
0.0620929
0.0631372
0.0641433
0.0651098
0.0660354
0.066919
0.0677594
0.0685554
0.0693062
0.0700108
0.0706683
0.071278
0.0718393
0.0723517
0.0728145
0.0732276
0.0735906
0.0739033
0.0741657
0.074378
0.0745402
0.0746526
0.0747158
0.0747301
0.0746963
0.0746152
0.0744876
0.0743145
0.0740972
0.0738369
0.073535
0.073193
0.0728126
0.0723956
0.0719437
0.0714591
0.0709438
0.0704001
0.0698301
0.0692363
0.0686212
0.0679873
0.0673371
0.0666733
0.0659985
0.0653153
0.0646265
0.0639345
0.063242
0.0625514
0.061865
0.061185
0.0605137
0.0598524
0.0592027
0.058569
0.0579552
0.0573168
0.056613
0.0117096
0.0108566
0.0100987
0.0093865
0.00866424
0.00793599
0.00720666
0.00647712
0.00574847
0.00502231
0.00430041
0.00358468
0.00287704
0.00217961
0.00149448
0.000823775
0.000169667
-0.000465748
-0.00108034
-0.00167205
-0.00223887
-0.00277886
-0.00329014
-0.00377088
-0.00421937
-0.00463401
-0.00501325
-0.00535563
-0.00565981
-0.00592457
-0.00614878
-0.00633138
-0.00647142
-0.00656807
-0.00662061
-0.00662838
-0.00659085
-0.00650754
-0.00637812
-0.00620233
-0.00598001
-0.00571105
-0.00539545
-0.00503331
-0.0046248
-0.00417016
-0.00366971
-0.00312385
-0.00253305
-0.00189786
-0.00121889
-0.000496814
0.000267628
0.00107362
0.00192029
0.00280669