/*--------------------------------*- C++ -*----------------------------------*\
  =========                 |
  \\      /  F ield         | OpenFOAM: The Open Source CFD Toolbox
   \\    /   O peration     | Website:  https://openfoam.org
    \\  /    A nd           | Version:  7
     \\/     M anipulation  |
\*---------------------------------------------------------------------------*/
FoamFile
{
    version     2.0;
    format      ascii;
    class       surfaceScalarField;
    location    "0.25";
    object      phi;
}
// * * * * * * * * * * * * * * * * * * * * * * * * * * * * * * * * * * * * * //

dimensions      [0 3 -1 0 0 0 0];

internalField   nonuniform List<scalar> 
50880
(
6.12815e-12
-6.15694e-12
3.64839e-11
-3.03605e-11
8.14752e-11
-4.49935e-11
1.31174e-10
-4.96923e-11
1.78422e-10
-4.72533e-11
2.18254e-10
-3.98326e-11
2.47255e-10
-2.89943e-11
2.63106e-10
-1.5854e-11
2.64304e-10
-1.19441e-12
2.49879e-10
1.44234e-11
2.19285e-10
3.05951e-11
1.72268e-10
4.7021e-11
1.0878e-10
6.34804e-11
2.89632e-11
7.98107e-11
-6.69115e-11
9.58805e-11
-1.78491e-10
1.11581e-10
-3.05326e-10
1.26838e-10
-4.46913e-10
1.41591e-10
-6.02706e-10
1.55791e-10
-7.72117e-10
1.69406e-10
-9.54526e-10
1.82411e-10
-1.1493e-09
1.94776e-10
-1.35578e-09
2.06487e-10
-1.57332e-09
2.17537e-10
-1.80123e-09
2.27916e-10
-2.03886e-09
2.37622e-10
-2.28551e-09
2.46652e-10
-2.54052e-09
2.55009e-10
-2.80321e-09
2.6269e-10
-3.07292e-09
2.69704e-10
-3.34898e-09
2.76057e-10
-3.63073e-09
2.81756e-10
-3.91754e-09
2.86805e-10
-4.20875e-09
2.91213e-10
-4.50374e-09
2.94991e-10
-4.80188e-09
2.98143e-10
-5.10256e-09
3.00683e-10
-5.40519e-09
3.02625e-10
-5.70917e-09
3.03978e-10
-6.01392e-09
3.04752e-10
-6.31888e-09
3.04959e-10
-6.62349e-09
3.0461e-10
-6.92721e-09
3.0372e-10
-7.2295e-09
3.02299e-10
-7.52986e-09
3.00356e-10
-7.82777e-09
2.97909e-10
-8.12274e-09
2.94971e-10
-8.41429e-09
2.91552e-10
-8.70196e-09
2.87666e-10
-8.98529e-09
2.83326e-10
-9.26383e-09
2.78544e-10
-9.53716e-09
2.73333e-10
-9.80487e-09
2.67705e-10
-1.00665e-08
2.61675e-10
-1.03218e-08
2.55258e-10
-1.05703e-08
2.48464e-10
-1.08116e-08
2.41307e-10
-1.10454e-08
2.33798e-10
-1.12713e-08
2.25953e-10
-1.14891e-08
2.17785e-10
-1.16984e-08
2.09308e-10
-1.1899e-08
2.00535e-10
-1.20904e-08
1.91478e-10
-1.22726e-08
1.82151e-10
-1.24451e-08
1.72568e-10
-1.26079e-08
1.62742e-10
-1.27606e-08
1.52686e-10
-1.2903e-08
1.42415e-10
-1.30349e-08
1.31943e-10
-1.31562e-08
1.21285e-10
-1.32667e-08
1.10453e-10
-1.33661e-08
9.94621e-11
-1.34545e-08
8.83248e-11
-1.35315e-08
7.7056e-11
-1.35972e-08
6.56713e-11
-1.36514e-08
5.41855e-11
-1.3694e-08
4.26128e-11
-1.37249e-08
3.09677e-11
-1.37442e-08
1.9265e-11
-1.37517e-08
7.52012e-12
-1.37475e-08
-4.25117e-12
-1.37314e-08
-1.6034e-11
-1.37036e-08
-2.78134e-11
-1.36641e-08
-3.95731e-11
-1.36128e-08
-5.12967e-11
-1.35498e-08
-6.29689e-11
-1.34752e-08
-7.4574e-11
-1.33891e-08
-8.60957e-11
-1.32916e-08
-9.7517e-11
-1.31828e-08
-1.08821e-10
-1.30628e-08
-1.19993e-10
-1.29318e-08
-1.31014e-10
-1.27899e-08
-1.41869e-10
-1.26374e-08
-1.52541e-10
-1.24744e-08
-1.63012e-10
-1.23011e-08
-1.73266e-10
-1.21178e-08
-1.83286e-10
-1.19248e-08
-1.93054e-10
-1.17222e-08
-2.02553e-10
-1.15104e-08
-2.11767e-10
-1.12898e-08
-2.20679e-10
-1.10605e-08
-2.2927e-10
-1.0823e-08
-2.37524e-10
-1.05775e-08
-2.45425e-10
-1.03246e-08
-2.52955e-10
-1.00645e-08
-2.60098e-10
-9.79764e-09
-2.66839e-10
-9.52448e-09
-2.73159e-10
-9.24544e-09
-2.79043e-10
-8.96096e-09
-2.84474e-10
-8.67153e-09
-2.89437e-10
-8.37761e-09
-2.93917e-10
-8.07971e-09
-2.97899e-10
-7.77834e-09
-3.01369e-10
-7.47403e-09
-3.04311e-10
-7.16732e-09
-3.06711e-10
-6.85876e-09
-3.08557e-10
-6.54893e-09
-3.09834e-10
-6.2384e-09
-3.10531e-10
-5.92776e-09
-3.10636e-10
-5.61763e-09
-3.10137e-10
-5.3086e-09
-3.09023e-10
-5.00132e-09
-3.07284e-10
-4.69641e-09
-3.04911e-10
-4.39451e-09
-3.01894e-10
-4.09629e-09
-2.98228e-10
-3.80238e-09
-2.93905e-10
-3.51346e-09
-2.88918e-10
-3.2302e-09
-2.83263e-10
-2.95327e-09
-2.76935e-10
-2.68333e-09
-2.69933e-10
-2.42108e-09
-2.62254e-10
-2.16718e-09
-2.53901e-10
-1.9223e-09
-2.44875e-10
-1.68712e-09
-2.35179e-10
-1.4623e-09
-2.24821e-10
-1.2485e-09
-2.13807e-10
-1.04635e-09
-2.02151e-10
-8.5648e-10
-1.89865e-10
-6.79509e-10
-1.76971e-10
-5.16018e-10
-1.63491e-10
-3.66564e-10
-1.49454e-10
-2.31669e-10
-1.34897e-10
-1.11807e-10
-1.19863e-10
-7.3997e-12
-1.04408e-10
8.12012e-11
-8.8601e-11
1.53729e-10
-7.25279e-11
2.10027e-10
-5.62969e-11
2.50072e-10
-4.00456e-11
2.74021e-10
-2.39501e-11
2.82259e-10
-8.23927e-12
2.75473e-10
6.78446e-12
2.54761e-10
2.0713e-11
2.21774e-10
3.29877e-11
1.78943e-10
4.28304e-11
1.2979e-10
4.91526e-11
7.93297e-11
5.04602e-11
3.46282e-11
4.47011e-11
5.34057e-12
2.9288e-11
5.34055e-12
3.01163e-11
-3.62697e-11
1.01402e-10
-1.01642e-10
1.95845e-10
-1.39437e-10
2.96291e-10
-1.50134e-10
3.88333e-10
-1.39297e-10
4.6075e-10
-1.1225e-10
5.05085e-10
-7.33315e-11
5.15173e-10
-2.59434e-11
4.86642e-10
2.7341e-11
4.16497e-10
8.45614e-11
3.02833e-10
1.44254e-10
1.4458e-10
2.05281e-10
-5.86962e-11
2.66763e-10
-3.06912e-10
3.2803e-10
-5.99584e-10
3.88549e-10
-9.3591e-10
4.47903e-10
-1.31484e-09
5.05764e-10
-1.73511e-09
5.61867e-10
-2.19533e-09
6.16004e-10
-2.69394e-09
6.6802e-10
-3.22932e-09
7.17782e-10
-3.79974e-09
7.65192e-10
-4.40344e-09
8.1018e-10
-5.03858e-09
8.52685e-10
-5.70333e-09
8.92661e-10
-6.3958e-09
9.30091e-10
-7.1141e-09
9.64958e-10
-7.85635e-09
9.97252e-10
-8.62063e-09
1.02698e-09
-9.40506e-09
1.05414e-09
-1.02078e-08
1.07876e-09
-1.10269e-08
1.10086e-09
-1.18605e-08
1.12045e-09
-1.27069e-08
1.13758e-09
-1.35642e-08
1.15226e-09
-1.44306e-08
1.16454e-09
-1.53043e-08
1.17444e-09
-1.61837e-08
1.18202e-09
-1.7067e-08
1.1873e-09
-1.79526e-08
1.19033e-09
-1.88388e-08
1.19116e-09
-1.9724e-08
1.18982e-09
-2.06067e-08
1.18637e-09
-2.14852e-08
1.18085e-09
-2.23582e-08
1.17331e-09
-2.3224e-08
1.16379e-09
-2.40814e-08
1.15235e-09
-2.49289e-08
1.13902e-09
-2.57651e-08
1.12387e-09
-2.65887e-08
1.10695e-09
-2.73985e-08
1.08829e-09
-2.81931e-08
1.06796e-09
-2.89714e-08
1.046e-09
-2.97322e-08
1.02246e-09
-3.04743e-08
9.97402e-10
-3.11967e-08
9.70867e-10
-3.18983e-08
9.42909e-10
-3.25781e-08
9.13579e-10
-3.32351e-08
8.8293e-10
-3.38683e-08
8.51014e-10
-3.44769e-08
8.17882e-10
-3.50599e-08
7.83587e-10
-3.56167e-08
7.48182e-10
-3.61462e-08
7.11721e-10
-3.66479e-08
6.74256e-10
-3.7121e-08
6.35841e-10
-3.75649e-08
5.96527e-10
-3.79788e-08
5.5637e-10
-3.83623e-08
5.15424e-10
-3.87147e-08
4.73746e-10
-3.90357e-08
4.31389e-10
-3.93246e-08
3.88408e-10
-3.95812e-08
3.4486e-10
-3.98049e-08
3.00803e-10
-3.99955e-08
2.56291e-10
-4.01527e-08
2.11382e-10
-4.02762e-08
1.66133e-10
-4.03659e-08
1.20605e-10
-4.04215e-08
7.48556e-11
-4.04429e-08
2.89443e-11
-4.04301e-08
-1.70702e-11
-4.0383e-08
-6.31268e-11
-4.03016e-08
-1.09164e-10
-4.01861e-08
-1.5512e-10
-4.00365e-08
-2.00934e-10
-3.98529e-08
-2.46542e-10
-3.96356e-08
-2.91881e-10
-3.93848e-08
-3.3689e-10
-3.91008e-08
-3.81504e-10
-3.8784e-08
-4.25657e-10
-3.84347e-08
-4.69284e-10
-3.80534e-08
-5.12321e-10
-3.76405e-08
-5.54702e-10
-3.71967e-08
-5.96362e-10
-3.67225e-08
-6.37235e-10
-3.62185e-08
-6.77254e-10
-3.56854e-08
-7.16352e-10
-3.5124e-08
-7.54462e-10
-3.4535e-08
-7.91519e-10
-3.39194e-08
-8.27456e-10
-3.32778e-08
-8.62207e-10
-3.26114e-08
-8.95705e-10
-3.1921e-08
-9.27884e-10
-3.12078e-08
-9.58678e-10
-3.04727e-08
-9.88023e-10
-2.9717e-08
-1.01585e-09
-2.89417e-08
-1.04211e-09
-2.81481e-08
-1.06672e-09
-2.73375e-08
-1.08963e-09
-2.65112e-08
-1.11077e-09
-2.56706e-08
-1.13008e-09
-2.4817e-08
-1.14752e-09
-2.39519e-08
-1.163e-09
-2.30768e-08
-1.17649e-09
-2.21932e-08
-1.18793e-09
-2.13026e-08
-1.19725e-09
-2.04067e-08
-1.20442e-09
-1.95072e-08
-1.20938e-09
-1.86057e-08
-1.21208e-09
-1.77038e-08
-1.21247e-09
-1.68034e-08
-1.21053e-09
-1.59063e-08
-1.2062e-09
-1.50141e-08
-1.19944e-09
-1.41288e-08
-1.19023e-09
-1.32521e-08
-1.17853e-09
-1.23861e-08
-1.16432e-09
-1.15324e-08
-1.14757e-09
-1.06931e-08
-1.12825e-09
-9.86995e-09
-1.10637e-09
-9.06499e-09
-1.08189e-09
-8.28009e-09
-1.05483e-09
-7.51717e-09
-1.02517e-09
-6.77814e-09
-9.92936e-10
-6.06489e-09
-9.58128e-10
-5.37929e-09
-9.20773e-10
-4.72321e-09
-8.80903e-10
-4.09845e-09
-8.3856e-10
-3.50681e-09
-7.93797e-10
-2.94999e-09
-7.46683e-10
-2.42966e-09
-6.97303e-10
-1.94739e-09
-6.45763e-10
-1.50465e-09
-5.9219e-10
-1.10281e-09
-5.36742e-10
-7.43058e-10
-4.79612e-10
-4.2643e-10
-4.21036e-10
-1.5373e-10
-3.61302e-10
7.45092e-11
-3.00768e-10
2.5809e-10
-2.39879e-10
3.97233e-10
-1.79188e-10
4.92681e-10
-1.19396e-10
5.45835e-10
-6.13925e-11
5.58934e-10
-6.31661e-12
5.35291e-10
4.43545e-11
4.79588e-10
8.86912e-11
3.98254e-10
1.24166e-10
2.9991e-10
1.47498e-10
1.95815e-10
1.54557e-10
1.00112e-10
1.40405e-10
2.92691e-11
1.00129e-10
3.46105e-11
4.49358e-11
-8.12076e-11
1.39324e-10
-1.96038e-10
2.56685e-10
-2.56804e-10
3.75321e-10
-2.68764e-10
4.76906e-10
-2.40884e-10
5.46563e-10
-1.81897e-10
5.72581e-10
-9.93521e-11
5.46031e-10
6.10279e-13
4.6028e-10
1.13084e-10
3.10622e-10
2.3423e-10
9.38617e-11
3.61015e-10
-1.91934e-10
4.91069e-10
-5.47695e-10
6.22528e-10
-9.73565e-10
7.539e-10
-1.46902e-09
8.84006e-10
-2.03303e-09
1.01191e-09
-2.66413e-09
1.13686e-09
-3.36051e-09
1.25824e-09
-4.12009e-09
1.37559e-09
-4.94056e-09
1.4885e-09
-5.81945e-09
1.59667e-09
-6.75411e-09
1.69986e-09
-7.74181e-09
1.79788e-09
-8.77972e-09
1.8906e-09
-9.86495e-09
1.97789e-09
-1.09946e-08
2.05969e-09
-1.21655e-08
2.13595e-09
-1.33749e-08
2.20664e-09
-1.46197e-08
2.27175e-09
-1.58969e-08
2.3313e-09
-1.72034e-08
2.3853e-09
-1.85363e-08
2.43378e-09
-1.98927e-08
2.47681e-09
-2.12695e-08
2.51442e-09
-2.26639e-08
2.54669e-09
-2.40731e-08
2.57367e-09
-2.54941e-08
2.59546e-09
-2.69242e-08
2.61212e-09
-2.83606e-08
2.62374e-09
-2.98007e-08
2.63041e-09
-3.12418e-08
2.63223e-09
-3.26812e-08
2.62928e-09
-3.41165e-08
2.62166e-09
-3.55452e-08
2.60948e-09
-3.69647e-08
2.59284e-09
-3.83728e-08
2.57184e-09
-3.9767e-08
2.54659e-09
-4.11452e-08
2.51718e-09
-4.2505e-08
2.48374e-09
-4.38444e-08
2.44637e-09
-4.51613e-08
2.40517e-09
-4.64536e-08
2.36026e-09
-4.77194e-08
2.31176e-09
-4.89567e-08
2.25976e-09
-5.01637e-08
2.20439e-09
-5.13386e-08
2.14575e-09
-5.24796e-08
2.08397e-09
-5.35852e-08
2.01915e-09
-5.46537e-08
1.9514e-09
-5.56835e-08
1.88086e-09
-5.66732e-08
1.80762e-09
-5.76215e-08
1.7318e-09
-5.85268e-08
1.65353e-09
-5.9388e-08
1.57292e-09
-6.02038e-08
1.49008e-09
-6.09731e-08
1.40514e-09
-6.16948e-08
1.31821e-09
-6.23678e-08
1.22942e-09
-6.29913e-08
1.13888e-09
-6.35643e-08
1.04672e-09
-6.40859e-08
9.5306e-10
-6.45556e-08
8.58021e-10
-6.49724e-08
7.61729e-10
-6.53359e-08
6.64309e-10
-6.56455e-08
5.65888e-10
-6.59007e-08
4.66592e-10
-6.61012e-08
3.6655e-10
-6.62464e-08
2.65891e-10
-6.63363e-08
1.64746e-10
-6.63706e-08
6.32469e-11
-6.63492e-08
-3.84731e-11
-6.62721e-08
-1.40281e-10
-6.61392e-08
-2.42042e-10
-6.59507e-08
-3.43618e-10
-6.57068e-08
-4.44872e-10
-6.54076e-08
-5.45667e-10
-6.50537e-08
-6.45861e-10
-6.46452e-08
-7.45316e-10
-6.41828e-08
-8.43888e-10
-6.36671e-08
-9.41437e-10
-6.30985e-08
-1.03782e-09
-6.2478e-08
-1.13289e-09
-6.18062e-08
-1.2265e-09
-6.1084e-08
-1.31851e-09
-6.03125e-08
-1.40877e-09
-5.94926e-08
-1.49714e-09
-5.86255e-08
-1.58346e-09
-5.77124e-08
-1.6676e-09
-5.67545e-08
-1.7494e-09
-5.57532e-08
-1.82873e-09
-5.471e-08
-1.90542e-09
-5.36263e-08
-1.97934e-09
-5.25039e-08
-2.05035e-09
-5.13443e-08
-2.11829e-09
-5.01493e-08
-2.18303e-09
-4.89207e-08
-2.24441e-09
-4.76605e-08
-2.30232e-09
-4.63706e-08
-2.35659e-09
-4.50532e-08
-2.4071e-09
-4.37102e-08
-2.45371e-09
-4.2344e-08
-2.4963e-09
-4.09568e-08
-2.53472e-09
-3.95509e-08
-2.56886e-09
-3.81288e-08
-2.59859e-09
-3.6693e-08
-2.62378e-09
-3.52459e-08
-2.64434e-09
-3.37902e-08
-2.66014e-09
-3.23285e-08
-2.67107e-09
-3.08635e-08
-2.67704e-09
-2.9398e-08
-2.67795e-09
-2.79349e-08
-2.6737e-09
-2.64769e-08
-2.66421e-09
-2.50269e-08
-2.6494e-09
-2.35879e-08
-2.6292e-09
-2.21629e-08
-2.60354e-09
-2.07549e-08
-2.57237e-09
-1.93668e-08
-2.53565e-09
-1.80017e-08
-2.49332e-09
-1.66627e-08
-2.44536e-09
-1.53529e-08
-2.39177e-09
-1.40752e-08
-2.33252e-09
-1.28327e-08
-2.26763e-09
-1.16285e-08
-2.19713e-09
-1.04656e-08
-2.12106e-09
-9.34689e-09
-2.03947e-09
-8.27534e-09
-1.95245e-09
-7.2538e-09
-1.8601e-09
-6.28504e-09
-1.76256e-09
-5.37173e-09
-1.65999e-09
-4.51643e-09
-1.55261e-09
-3.72154e-09
-1.44065e-09
-2.9893e-09
-1.32443e-09
-2.32173e-09
-1.20432e-09
-1.72058e-09
-1.08076e-09
-1.18732e-09
-9.54295e-10
-7.23033e-10
-8.25593e-10
-3.28342e-10
-6.9546e-10
-3.33298e-12
-5.64889e-10
2.52581e-10
-4.35105e-10
4.40809e-10
-3.07626e-10
5.63768e-10
-1.8435e-10
6.25111e-10
-6.76585e-11
6.30014e-10
3.94505e-11
5.85515e-10
1.3319e-10
5.0089e-10
2.08791e-10
3.88047e-10
2.6034e-10
2.61882e-10
2.80721e-10
1.40424e-10
2.61864e-10
4.46796e-11
1.95874e-10
7.9291e-11
4.97517e-11
-1.30956e-10
1.50356e-10
-2.96637e-10
2.69227e-10
-3.75666e-10
3.81125e-10
-3.80671e-10
4.65221e-10
-3.24978e-10
5.0443e-10
-2.21116e-10
4.85035e-10
-7.99518e-11
3.96267e-10
8.93834e-11
2.29907e-10
2.79443e-10
-2.00836e-11
4.84216e-10
-3.57921e-10
6.98844e-10
-7.86292e-10
9.19445e-10
-1.30665e-09
1.14288e-09
-1.91938e-09
1.36663e-09
-2.62402e-09
1.58866e-09
-3.41944e-09
1.80733e-09
-4.30388e-09
2.02129e-09
-5.27512e-09
2.22948e-09
-6.33056e-09
2.43102e-09
-7.46727e-09
2.6252e-09
-8.68205e-09
2.81145e-09
-9.97152e-09
2.98932e-09
-1.13321e-08
3.15845e-09
-1.27601e-08
3.31856e-09
-1.42516e-08
3.46944e-09
-1.58028e-08
3.61094e-09
-1.74098e-08
3.74293e-09
-1.90686e-08
3.86537e-09
-2.0775e-08
3.97821e-09
-2.25252e-08
4.08146e-09
-2.4315e-08
4.17513e-09
-2.61405e-08
4.25929e-09
-2.79977e-08
4.33399e-09
-2.98826e-08
4.39931e-09
-3.17913e-08
4.45536e-09
-3.37198e-08
4.50224e-09
-3.56645e-08
4.54009e-09
-3.76214e-08
4.56903e-09
-3.95868e-08
4.5892e-09
-4.15572e-08
4.60075e-09
-4.35288e-08
4.60384e-09
-4.54981e-08
4.59862e-09
-4.74617e-08
4.58527e-09
-4.94162e-08
4.56395e-09
-5.13582e-08
4.53484e-09
-5.32844e-08
4.49811e-09
-5.51918e-08
4.45395e-09
-5.70772e-08
4.40255e-09
-5.89375e-08
4.34408e-09
-6.07699e-08
4.27874e-09
-6.25714e-08
4.20671e-09
-6.43393e-08
4.12818e-09
-6.6071e-08
4.04336e-09
-6.77636e-08
3.95243e-09
-6.94148e-08
3.85559e-09
-7.10221e-08
3.75304e-09
-7.25831e-08
3.64497e-09
-7.40956e-08
3.53158e-09
-7.55572e-08
3.41308e-09
-7.6966e-08
3.28967e-09
-7.832e-08
3.16154e-09
-7.96171e-08
3.0289e-09
-8.08555e-08
2.89196e-09
-8.20335e-08
2.75091e-09
-8.31494e-08
2.60597e-09
-8.42016e-08
2.45735e-09
-8.51886e-08
2.30525e-09
-8.61091e-08
2.14989e-09
-8.69617e-08
1.99147e-09
-8.77452e-08
1.83021e-09
-8.84584e-08
1.66632e-09
-8.91004e-08
1.50003e-09
-8.96703e-08
1.33155e-09
-9.0167e-08
1.16109e-09
-9.059e-08
9.88886e-10
-9.09386e-08
8.15156e-10
-9.12122e-08
6.40124e-10
-9.14103e-08
4.64019e-10
-9.15326e-08
2.8707e-10
-9.15789e-08
1.09509e-10
-9.15489e-08
-6.84336e-11
-9.14427e-08
-2.46521e-10
-9.12602e-08
-4.24516e-10
-9.10016e-08
-6.0218e-10
-9.06672e-08
-7.79272e-10
-9.02574e-08
-9.55549e-10
-8.97725e-08
-1.13077e-09
-8.92131e-08
-1.30468e-09
-8.85799e-08
-1.47704e-09
-8.78738e-08
-1.6476e-09
-8.70955e-08
-1.81611e-09
-8.62461e-08
-1.98231e-09
-8.53266e-08
-2.14595e-09
-8.43383e-08
-2.30678e-09
-8.32826e-08
-2.46454e-09
-8.21607e-08
-2.61898e-09
-8.09744e-08
-2.76983e-09
-7.97251e-08
-2.91686e-09
-7.84147e-08
-3.05979e-09
-7.70451e-08
-3.19838e-09
-7.56181e-08
-3.33236e-09
-7.4136e-08
-3.46149e-09
-7.26008e-08
-3.58551e-09
-7.10149e-08
-3.70418e-09
-6.93807e-08
-3.81724e-09
-6.77007e-08
-3.92444e-09
-6.59775e-08
-4.02554e-09
-6.42137e-08
-4.12031e-09
-6.24123e-08
-4.2085e-09
-6.05762e-08
-4.28988e-09
-5.87082e-08
-4.36422e-09
-5.68117e-08
-4.43131e-09
-5.48896e-08
-4.49091e-09
-5.29454e-08
-4.54282e-09
-5.09823e-08
-4.58683e-09
-4.90039e-08
-4.62274e-09
-4.70137e-08
-4.65036e-09
-4.50153e-08
-4.66951e-09
-4.30123e-08
-4.68001e-09
-4.10086e-08
-4.68169e-09
-3.90079e-08
-4.67441e-09
-3.70141e-08
-4.65801e-09
-3.50311e-08
-4.63237e-09
-3.30629e-08
-4.59736e-09
-3.11136e-08
-4.55289e-09
-2.91871e-08
-4.49885e-09
-2.72876e-08
-4.43517e-09
-2.54191e-08
-4.36179e-09
-2.35858e-08
-4.27867e-09
-2.17918e-08
-4.1858e-09
-2.00411e-08
-4.08318e-09
-1.83379e-08
-3.97083e-09
-1.66862e-08
-3.84881e-09
-1.50901e-08
-3.71721e-09
-1.35534e-08
-3.57614e-09
-1.20801e-08
-3.42578e-09
-1.06739e-08
-3.26631e-09
-9.33843e-09
-3.098e-09
-8.07725e-09
-2.92117e-09
-6.89367e-09
-2.73619e-09
-5.79079e-09
-2.54353e-09
-4.77147e-09
-2.34375e-09
-3.83827e-09
-2.13752e-09
-2.99338e-09
-1.92565e-09
-2.23857e-09
-1.70911e-09
-1.57508e-09
-1.48909e-09
-1.00354e-09
-1.26699e-09
-5.23868e-10
-1.04456e-09
-1.3508e-10
-8.23894e-10
1.64851e-10
-6.07559e-10
3.79217e-10
-3.98717e-10
5.12814e-10
-2.01256e-10
5.72236e-10
-1.9971e-11
5.66188e-10
1.39237e-10
5.05838e-10
2.69142e-10
4.05159e-10
3.61019e-10
2.81285e-10
4.04596e-10
1.54835e-10
3.88314e-10
5.04988e-11
3.00209e-10
1.2979e-10
4.74849e-11
-1.78441e-10
1.40122e-10
-3.89287e-10
2.42472e-10
-4.78023e-10
3.27154e-10
-4.65332e-10
3.71754e-10
-3.69589e-10
3.57936e-10
-2.07279e-10
2.70748e-10
7.22182e-12
9.83076e-11
2.61818e-10
-1.68633e-10
5.46399e-10
-5.37057e-10
8.52634e-10
-1.01192e-09
1.17371e-09
-1.59651e-09
1.50404e-09
-2.2927e-09
1.83906e-09
-3.10111e-09
2.17505e-09
-4.02139e-09
2.50894e-09
-5.05231e-09
2.83824e-09
-6.19192e-09
3.16091e-09
-7.43771e-09
3.47527e-09
-8.78664e-09
3.77995e-09
-1.02353e-08
4.07383e-09
-1.17798e-08
4.35601e-09
-1.34163e-08
4.62574e-09
-1.51402e-08
4.88244e-09
-1.69473e-08
5.12565e-09
-1.88329e-08
5.355e-09
-2.07922e-08
5.57023e-09
-2.28204e-08
5.77114e-09
-2.49126e-08
5.9576e-09
-2.7064e-08
6.12954e-09
-2.92694e-08
6.28692e-09
-3.15241e-08
6.42977e-09
-3.38229e-08
6.55815e-09
-3.61611e-08
6.67213e-09
-3.85336e-08
6.77182e-09
-4.09356e-08
6.85736e-09
-4.33622e-08
6.92892e-09
-4.58088e-08
6.98666e-09
-4.82706e-08
7.03077e-09
-5.07428e-08
7.06147e-09
-5.32211e-08
7.07897e-09
-5.57007e-08
7.0835e-09
-5.81774e-08
7.07531e-09
-6.06468e-08
7.05463e-09
-6.31046e-08
7.02173e-09
-6.55466e-08
6.97688e-09
-6.79688e-08
6.92032e-09
-7.03672e-08
6.85235e-09
-7.27379e-08
6.77324e-09
-7.50771e-08
6.68328e-09
-7.73811e-08
6.58274e-09
-7.96463e-08
6.47191e-09
-8.18692e-08
6.3511e-09
-8.40465e-08
6.2206e-09
-8.61747e-08
6.0807e-09
-8.82508e-08
5.9317e-09
-9.02717e-08
5.77391e-09
-9.22344e-08
5.60762e-09
-9.41359e-08
5.43315e-09
-9.59736e-08
5.2508e-09
-9.77449e-08
5.06089e-09
-9.9447e-08
4.86371e-09
-1.01078e-07
4.65959e-09
-1.02635e-07
4.44885e-09
-1.04115e-07
4.23178e-09
-1.05518e-07
4.00873e-09
-1.06841e-07
3.78e-09
-1.08082e-07
3.54592e-09
-1.09238e-07
3.30681e-09
-1.1031e-07
3.063e-09
-1.11295e-07
2.81482e-09
-1.12191e-07
2.5626e-09
-1.12998e-07
2.30668e-09
-1.13713e-07
2.04739e-09
-1.14337e-07
1.78507e-09
-1.14869e-07
1.52006e-09
-1.15306e-07
1.25272e-09
-1.15649e-07
9.83374e-10
-1.15898e-07
7.12388e-10
-1.16051e-07
4.40111e-10
-1.16108e-07
1.66901e-10
-1.1607e-07
-1.06884e-10
-1.15935e-07
-3.80881e-10
-1.15705e-07
-6.54724e-10
-1.15379e-07
-9.28045e-10
-1.14958e-07
-1.20047e-09
-1.14442e-07
-1.47164e-09
-1.13832e-07
-1.74116e-09
-1.13128e-07
-2.00865e-09
-1.12331e-07
-2.27375e-09
-1.11442e-07
-2.53606e-09
-1.10463e-07
-2.79519e-09
-1.09395e-07
-3.05076e-09
-1.08238e-07
-3.30239e-09
-1.06996e-07
-3.54967e-09
-1.05668e-07
-3.79222e-09
-1.04257e-07
-4.02965e-09
-1.02766e-07
-4.26156e-09
-1.01195e-07
-4.48756e-09
-9.95474e-08
-4.70726e-09
-9.78255e-08
-4.92026e-09
-9.60317e-08
-5.12618e-09
-9.41685e-08
-5.32462e-09
-9.22388e-08
-5.51521e-09
-9.02455e-08
-5.69755e-09
-8.81914e-08
-5.87126e-09
-8.60799e-08
-6.03598e-09
-8.39141e-08
-6.19132e-09
-8.16975e-08
-6.33691e-09
-7.94336e-08
-6.47241e-09
-7.71261e-08
-6.59744e-09
-7.47786e-08
-6.71166e-09
-7.23952e-08
-6.81474e-09
-6.99798e-08
-6.90634e-09
-6.75364e-08
-6.98613e-09
-6.50695e-08
-7.05381e-09
-6.25831e-08
-7.10907e-09
-6.00819e-08
-7.15162e-09
-5.75702e-08
-7.18119e-09
-5.50527e-08
-7.19752e-09
-5.2534e-08
-7.20035e-09
-5.0019e-08
-7.18945e-09
-4.75124e-08
-7.16462e-09
-4.50191e-08
-7.12565e-09
-4.25441e-08
-7.07237e-09
-4.00924e-08
-7.00462e-09
-3.76689e-08
-6.92228e-09
-3.52788e-08
-6.82525e-09
-3.29272e-08
-6.71343e-09
-3.06191e-08
-6.5868e-09
-2.83596e-08
-6.44532e-09
-2.61537e-08
-6.28902e-09
-2.40066e-08
-6.11796e-09
-2.19231e-08
-5.93225e-09
-1.99083e-08
-5.73204e-09
-1.79669e-08
-5.51753e-09
-1.61037e-08
-5.289e-09
-1.43232e-08
-5.04679e-09
-1.26299e-08
-4.79131e-09
-1.1028e-08
-4.52307e-09
-9.52147e-09
-4.24271e-09
-8.11405e-09
-3.95094e-09
-6.80912e-09
-3.64868e-09
-5.60967e-09
-3.33697e-09
-4.51822e-09
-3.0171e-09
-3.53676e-09
-2.69057e-09
-2.66665e-09
-2.35919e-09
-1.9085e-09
-2.02515e-09
-1.26202e-09
-1.69104e-09
-7.25889e-10
-1.36002e-09
-2.97574e-10
-1.03587e-09
2.69014e-11
-7.23194e-10
2.53184e-10
-4.2754e-10
3.88861e-10
-1.55648e-10
4.43751e-10
8.43473e-11
4.30215e-10
2.82678e-10
3.63495e-10
4.27739e-10
2.62106e-10
5.05985e-10
1.4836e-10
5.0206e-10
4.93472e-11
3.99222e-10
1.79137e-10
4.0337e-11
-2.18773e-10
1.13965e-10
-4.62911e-10
1.8519e-10
-5.49242e-10
2.2586e-10
-5.06014e-10
2.12951e-10
-3.56669e-10
1.27475e-10
-1.21811e-10
-4.60566e-11
1.80768e-10
-3.20172e-10
5.35925e-10
-7.04711e-10
9.30929e-10
-1.20719e-09
1.35512e-09
-1.83309e-09
1.79961e-09
-2.5861e-09
2.25705e-09
-3.46837e-09
2.72133e-09
-4.48072e-09
3.1874e-09
-5.62285e-09
3.65107e-09
-6.89349e-09
4.10888e-09
-8.29054e-09
4.55797e-09
-9.81122e-09
4.99595e-09
-1.14521e-08
5.42088e-09
-1.32094e-08
5.83114e-09
-1.50788e-08
6.22541e-09
-1.70557e-08
6.6026e-09
-1.91351e-08
6.96185e-09
-2.13119e-08
7.30246e-09
-2.35808e-08
7.62388e-09
-2.59362e-08
7.92568e-09
-2.83727e-08
8.20755e-09
-3.08843e-08
8.46928e-09
-3.34655e-08
8.71073e-09
-3.61104e-08
8.93182e-09
-3.88132e-08
9.13257e-09
-4.15681e-08
9.31301e-09
-4.43692e-08
9.47323e-09
-4.72108e-08
9.61339e-09
-5.0087e-08
9.73365e-09
-5.29923e-08
9.83421e-09
-5.5921e-08
9.9153e-09
-5.88674e-08
9.97719e-09
-6.18261e-08
1.00202e-08
-6.47916e-08
1.00445e-08
-6.77586e-08
1.00505e-08
-7.07218e-08
1.00385e-08
-7.36761e-08
1.00089e-08
-7.66164e-08
9.96201e-09
-7.95377e-08
9.89818e-09
-8.24352e-08
9.8178e-09
-8.5304e-08
9.72125e-09
-8.81397e-08
9.60891e-09
-9.09376e-08
9.4812e-09
-9.36934e-08
9.3385e-09
-9.64027e-08
9.18123e-09
-9.90614e-08
9.00979e-09
-1.01665e-07
8.8246e-09
-1.04211e-07
8.62608e-09
-1.06694e-07
8.41466e-09
-1.09111e-07
8.19076e-09
-1.11458e-07
7.95481e-09
-1.13732e-07
7.70724e-09
-1.1593e-07
7.4485e-09
-1.18048e-07
7.17901e-09
-1.20083e-07
6.89921e-09
-1.22033e-07
6.60957e-09
-1.23895e-07
6.31051e-09
-1.25666e-07
6.00249e-09
-1.27343e-07
5.68596e-09
-1.28924e-07
5.36138e-09
-1.30407e-07
5.02921e-09
-1.31791e-07
4.68991e-09
-1.33071e-07
4.34394e-09
-1.34248e-07
3.99176e-09
-1.3532e-07
3.63386e-09
-1.36284e-07
3.27071e-09
-1.37139e-07
2.90279e-09
-1.37885e-07
2.53057e-09
-1.38519e-07
2.15455e-09
-1.39042e-07
1.77522e-09
-1.39451e-07
1.39306e-09
-1.39747e-07
1.00859e-09
-1.3993e-07
6.22293e-10
-1.39997e-07
2.34687e-10
-1.39951e-07
-1.53719e-10
-1.39789e-07
-5.42412e-10
-1.39513e-07
-9.30872e-10
-1.39122e-07
-1.31858e-09
-1.38618e-07
-1.705e-09
-1.38e-07
-2.0896e-09
-1.37269e-07
-2.47186e-09
-1.36427e-07
-2.85124e-09
-1.35473e-07
-3.22718e-09
-1.3441e-07
-3.59916e-09
-1.33239e-07
-3.96661e-09
-1.3196e-07
-4.329e-09
-1.30577e-07
-4.68577e-09
-1.2909e-07
-5.03637e-09
-1.27502e-07
-5.38024e-09
-1.25815e-07
-5.71682e-09
-1.24031e-07
-6.04557e-09
-1.22153e-07
-6.36593e-09
-1.20183e-07
-6.67733e-09
-1.18124e-07
-6.97923e-09
-1.15979e-07
-7.27108e-09
-1.13751e-07
-7.55232e-09
-1.11444e-07
-7.82242e-09
-1.09061e-07
-8.08082e-09
-1.06605e-07
-8.32699e-09
-1.0408e-07
-8.5604e-09
-1.01491e-07
-8.78053e-09
-9.88413e-08
-8.98686e-09
-9.61348e-08
-9.17887e-09
-9.33762e-08
-9.35608e-09
-9.05699e-08
-9.51798e-09
-8.77205e-08
-9.6641e-09
-8.48329e-08
-9.79398e-09
-8.19118e-08
-9.90717e-09
-7.89624e-08
-1.00032e-08
-7.59898e-08
-1.00817e-08
-7.29991e-08
-1.01423e-08
-6.99958e-08
-1.01845e-08
-6.69854e-08
-1.0208e-08
-6.39733e-08
-1.02124e-08
-6.09652e-08
-1.01975e-08
-5.79669e-08
-1.01629e-08
-5.49841e-08
-1.01084e-08
-5.20227e-08
-1.00338e-08
-4.90886e-08
-9.93876e-09
-4.61876e-08
-9.8232e-09
-4.33259e-08
-9.68697e-09
-4.05094e-08
-9.52997e-09
-3.7744e-08
-9.35216e-09
-3.50358e-08
-9.15353e-09
-3.23907e-08
-8.93414e-09
-2.98146e-08
-8.69409e-09
-2.73133e-08
-8.43355e-09
-2.48926e-08
-8.15276e-09
-2.2558e-08
-7.85205e-09
-2.03152e-08
-7.53183e-09
-1.81694e-08
-7.19261e-09
-1.61257e-08
-6.83502e-09
-1.41889e-08
-6.45981e-09
-1.23637e-08
-6.06789e-09
-1.06543e-08
-5.66035e-09
-9.06452e-09
-5.23849e-09
-7.59768e-09
-4.80382e-09
-6.2566e-09
-4.35817e-09
-5.04347e-09
-3.9037e-09
-3.95972e-09
-3.44294e-09
-3.00593e-09
-2.97894e-09
-2.18167e-09
-2.51531e-09
-1.48536e-09
-2.05633e-09
-9.14088e-10
-1.60715e-09
-4.63396e-10
-1.17389e-09
-1.27071e-10
-7.63865e-10
1.03107e-10
-3.85825e-10
2.37626e-10
-5.01712e-11
2.89528e-10
2.30775e-10
2.74743e-10
4.42525e-10
2.12511e-10
5.68218e-10
1.2599e-10
5.88581e-10
4.32945e-11
4.81918e-10
2.22432e-10
2.98481e-11
-2.48621e-10
7.61852e-11
-5.09256e-10
1.04794e-10
-5.77857e-10
8.79924e-11
-4.89201e-10
2.86861e-12
-2.71551e-10
-1.6953e-10
5.05904e-11
-4.4482e-10
4.56063e-10
-8.35684e-10
9.26794e-10
-1.35221e-09
1.44746e-09
-2.00217e-09
2.00508e-09
-2.79129e-09
2.58873e-09
-3.72347e-09
3.18923e-09
-4.80103e-09
3.79889e-09
-6.02488e-09
4.41125e-09
-7.39473e-09
5.02092e-09
-8.90925e-09
5.6234e-09
-1.05662e-08
6.2149e-09
-1.23625e-08
6.79229e-09
-1.42946e-08
7.35294e-09
-1.63581e-08
7.89467e-09
-1.85484e-08
8.41569e-09
-2.08603e-08
8.91451e-09
-2.32884e-08
9.38992e-09
-2.58269e-08
9.84094e-09
-2.84698e-08
1.02668e-08
-3.1211e-08
1.06669e-08
-3.40441e-08
1.10407e-08
-3.69628e-08
1.1388e-08
-3.99605e-08
1.17084e-08
-4.30306e-08
1.2002e-08
-4.61666e-08
1.22685e-08
-4.93618e-08
1.25082e-08
-5.26096e-08
1.2721e-08
-5.59033e-08
1.29072e-08
-5.92366e-08
1.30669e-08
-6.26027e-08
1.32003e-08
-6.59953e-08
1.33079e-08
-6.94079e-08
1.33898e-08
-7.28343e-08
1.34465e-08
-7.62682e-08
1.34784e-08
-7.97034e-08
1.34858e-08
-8.3134e-08
1.34691e-08
-8.6554e-08
1.34289e-08
-8.99575e-08
1.33655e-08
-9.33388e-08
1.32795e-08
-9.66924e-08
1.31714e-08
-1.00013e-07
1.30416e-08
-1.03294e-07
1.28907e-08
-1.06532e-07
1.27192e-08
-1.09721e-07
1.25276e-08
-1.12857e-07
1.23164e-08
-1.15933e-07
1.20863e-08
-1.18946e-07
1.18378e-08
-1.21892e-07
1.15714e-08
-1.24765e-07
1.12876e-08
-1.27561e-07
1.09872e-08
-1.30277e-07
1.06705e-08
-1.32908e-07
1.03383e-08
-1.35451e-07
9.99114e-09
-1.37901e-07
9.62952e-09
-1.40256e-07
9.25408e-09
-1.42512e-07
8.86542e-09
-1.44665e-07
8.46413e-09
-1.46714e-07
8.05082e-09
-1.48654e-07
7.62609e-09
-1.50483e-07
7.19056e-09
-1.52199e-07
6.74485e-09
-1.53798e-07
6.28957e-09
-1.5528e-07
5.82534e-09
-1.56641e-07
5.35281e-09
-1.57879e-07
4.87259e-09
-1.58994e-07
4.38534e-09
-1.59983e-07
3.89169e-09
-1.60845e-07
3.3923e-09
-1.61578e-07
2.88781e-09
-1.62182e-07
2.37888e-09
-1.62655e-07
1.86619e-09
-1.62997e-07
1.3504e-09
-1.63206e-07
8.3218e-10
-1.63284e-07
3.12219e-10
-1.63229e-07
-2.08799e-10
-1.63041e-07
-7.30181e-10
-1.62721e-07
-1.25123e-09
-1.62268e-07
-1.77125e-09
-1.61684e-07
-2.28952e-09
-1.60968e-07
-2.80535e-09
-1.60122e-07
-3.318e-09
-1.59146e-07
-3.82676e-09
-1.58042e-07
-4.3309e-09
-1.56812e-07
-4.8297e-09
-1.55456e-07
-5.32241e-09
-1.53977e-07
-5.80831e-09
-1.52376e-07
-6.28665e-09
-1.50656e-07
-6.75669e-09
-1.48818e-07
-7.2177e-09
-1.46866e-07
-7.66892e-09
-1.44802e-07
-8.10962e-09
-1.42629e-07
-8.53905e-09
-1.4035e-07
-8.95646e-09
-1.37968e-07
-9.36113e-09
-1.35487e-07
-9.7523e-09
-1.3291e-07
-1.01293e-08
-1.30241e-07
-1.04913e-08
-1.27484e-07
-1.08376e-08
-1.24644e-07
-1.11675e-08
-1.21724e-07
-1.14804e-08
-1.18729e-07
-1.17754e-08
-1.15664e-07
-1.2052e-08
-1.12533e-07
-1.23094e-08
-1.09342e-07
-1.25469e-08
-1.06096e-07
-1.2764e-08
-1.028e-07
-1.296e-08
-9.94601e-08
-1.31343e-08
-9.60811e-08
-1.32862e-08
-9.26691e-08
-1.34152e-08
-8.923e-08
-1.35208e-08
-8.577e-08
-1.36023e-08
-8.2295e-08
-1.36594e-08
-7.88115e-08
-1.36915e-08
-7.53257e-08
-1.36982e-08
-7.18441e-08
-1.36791e-08
-6.83734e-08
-1.36337e-08
-6.492e-08
-1.35618e-08
-6.14908e-08
-1.3463e-08
-5.80924e-08
-1.33371e-08
-5.47317e-08
-1.31839e-08
-5.14155e-08
-1.30032e-08
-4.81506e-08
-1.27949e-08
-4.49437e-08
-1.2559e-08
-4.18019e-08
-1.22954e-08
-3.87317e-08
-1.20043e-08
-3.57399e-08
-1.16859e-08
-3.2833e-08
-1.13404e-08
-3.00177e-08
-1.09681e-08
-2.73002e-08
-1.05696e-08
-2.46866e-08
-1.01453e-08
-2.21831e-08
-9.69615e-09
-1.97953e-08
-9.22285e-09
-1.75286e-08
-8.72651e-09
-1.53881e-08
-8.20838e-09
-1.33785e-08
-7.66995e-09
-1.1504e-08
-7.11297e-09
-9.76832e-09
-6.53951e-09
-8.17449e-09
-5.952e-09
-6.72486e-09
-5.35333e-09
-5.42095e-09
-4.74685e-09
-4.26334e-09
-4.13656e-09
-3.25151e-09
-3.52713e-09
-2.38374e-09
-2.92411e-09
-1.65687e-09
-2.33402e-09
-1.06617e-09
-1.76459e-09
-6.05098e-10
-1.22493e-09
-2.65119e-10
-7.25805e-10
-3.54295e-11
-2.79861e-10
9.7286e-11
9.80606e-11
1.49172e-10
3.90639e-10
1.39624e-10
5.77765e-10
9.18669e-11
6.36339e-10
3.38383e-11
5.39946e-10
2.56271e-10
1.71141e-11
-2.65731e-10
3.01083e-11
-5.22249e-10
7.3054e-12
-5.5505e-10
-7.76285e-11
-4.04272e-10
-2.46761e-10
-1.02417e-10
-5.18541e-10
3.22371e-10
-9.08274e-10
8.4578e-10
-1.42844e-09
1.44697e-09
-2.08907e-09
2.10809e-09
-2.89793e-09
2.81393e-09
-3.86075e-09
3.55156e-09
-4.98149e-09
4.30998e-09
-6.26249e-09
5.07988e-09
-7.70465e-09
5.85341e-09
-9.30762e-09
6.6239e-09
-1.107e-08
7.38574e-09
-1.29893e-08
8.13421e-09
-1.50623e-08
8.86532e-09
-1.72851e-08
9.57572e-09
-1.9653e-08
1.02626e-08
-2.21611e-08
1.09237e-08
-2.48035e-08
1.1557e-08
-2.75745e-08
1.21609e-08
-3.04678e-08
1.27342e-08
-3.34767e-08
1.32757e-08
-3.65945e-08
1.37847e-08
-3.98142e-08
1.42605e-08
-4.31289e-08
1.47026e-08
-4.65312e-08
1.51107e-08
-5.00138e-08
1.54846e-08
-5.35695e-08
1.58243e-08
-5.7191e-08
1.61296e-08
-6.08707e-08
1.64008e-08
-6.46015e-08
1.66379e-08
-6.83759e-08
1.68413e-08
-7.21867e-08
1.70111e-08
-7.60267e-08
1.71479e-08
-7.98887e-08
1.72518e-08
-8.37656e-08
1.73235e-08
-8.76505e-08
1.73633e-08
-9.15364e-08
1.73717e-08
-9.54167e-08
1.73493e-08
-9.92845e-08
1.72967e-08
-1.03133e-07
1.72145e-08
-1.06957e-07
1.71031e-08
-1.10749e-07
1.69633e-08
-1.14503e-07
1.67957e-08
-1.18213e-07
1.6601e-08
-1.21874e-07
1.63798e-08