/*--------------------------------*- C++ -*----------------------------------*\
  =========                 |
  \\      /  F ield         | OpenFOAM: The Open Source CFD Toolbox
   \\    /   O peration     | Website:  https://openfoam.org
    \\  /    A nd           | Version:  7
     \\/     M anipulation  |
\*---------------------------------------------------------------------------*/
FoamFile
{
    version     2.0;
    format      ascii;
    class       volVectorField;
    location    "0.25";
    object      U;
}
// * * * * * * * * * * * * * * * * * * * * * * * * * * * * * * * * * * * * * //

dimensions      [0 1 -1 0 0 0 0];

internalField   nonuniform List<vector> 
25600
(
(1.74905e-07 -2.13896e-07 0)
(2.86823e-06 -1.82283e-06 0)
(9.12282e-06 -2.84572e-06 0)
(1.69944e-05 -3.21282e-06 0)
(2.4959e-05 -3.12502e-06 0)
(3.20697e-05 -2.74385e-06 0)
(3.76815e-05 -2.17695e-06 0)
(4.13428e-05 -1.49508e-06 0)
(4.27565e-05 -7.44157e-07 0)
(4.17301e-05 4.56137e-08 0)
(3.81472e-05 8.53298e-07 0)
(3.19465e-05 1.66499e-06 0)
(2.31066e-05 2.47076e-06 0)
(1.16365e-05 3.26403e-06 0)
(-2.4291e-06 4.03922e-06 0)
(-1.90393e-05 4.79183e-06 0)
(-3.81293e-05 5.51935e-06 0)
(-5.96222e-05 6.21955e-06 0)
(-8.34335e-05 6.89068e-06 0)
(-0.000109472 7.53167e-06 0)
(-0.000137641 8.14184e-06 0)
(-0.00016784 8.72008e-06 0)
(-0.000199965 9.26603e-06 0)
(-0.000233912 9.7799e-06 0)
(-0.000269574 1.02614e-05 0)
(-0.000306843 1.07107e-05 0)
(-0.000345611 1.11278e-05 0)
(-0.00038577 1.1513e-05 0)
(-0.000427212 1.18664e-05 0)
(-0.00046983 1.21886e-05 0)
(-0.000513516 1.24802e-05 0)
(-0.000558167 1.27413e-05 0)
(-0.000603677 1.29722e-05 0)
(-0.000649943 1.31735e-05 0)
(-0.000696863 1.33457e-05 0)
(-0.000744338 1.3489e-05 0)
(-0.000792267 1.36042e-05 0)
(-0.000840556 1.36922e-05 0)
(-0.000889107 1.37533e-05 0)
(-0.000937828 1.37881e-05 0)
(-0.000986626 1.3797e-05 0)
(-0.00103541 1.37807e-05 0)
(-0.0010841 1.37397e-05 0)
(-0.0011326 1.36745e-05 0)
(-0.00118083 1.35858e-05 0)
(-0.00122872 1.34742e-05 0)
(-0.00127617 1.33404e-05 0)
(-0.00132311 1.3185e-05 0)
(-0.00136946 1.30085e-05 0)
(-0.00141516 1.28116e-05 0)
(-0.00146013 1.25947e-05 0)
(-0.00150429 1.23584e-05 0)
(-0.00154759 1.21034e-05 0)
(-0.00158996 1.18303e-05 0)
(-0.00163133 1.15398e-05 0)
(-0.00167164 1.12324e-05 0)
(-0.00171083 1.09085e-05 0)
(-0.00174886 1.05689e-05 0)
(-0.00178565 1.02142e-05 0)
(-0.00182116 9.84496e-06 0)
(-0.00185534 9.46191e-06 0)
(-0.00188814 9.06554e-06 0)
(-0.00191951 8.6564e-06 0)
(-0.00194941 8.23512e-06 0)
(-0.0019778 7.8023e-06 0)
(-0.00200463 7.35851e-06 0)
(-0.00202988 6.90439e-06 0)
(-0.00205349 6.44059e-06 0)
(-0.00207545 5.9678e-06 0)
(-0.00209571 5.48661e-06 0)
(-0.00211426 4.99762e-06 0)
(-0.00213106 4.50143e-06 0)
(-0.00214609 3.9986e-06 0)
(-0.00215932 3.4898e-06 0)
(-0.00217074 2.97573e-06 0)
(-0.00218034 2.45709e-06 0)
(-0.00218808 1.9345e-06 0)
(-0.00219397 1.4086e-06 0)
(-0.00219799 8.80049e-07 0)
(-0.00220014 3.49545e-07 0)
(-0.0022004 -1.82214e-07 0)
(-0.00219878 -7.14577e-07 0)
(-0.00219527 -1.24688e-06 0)
(-0.00218988 -1.77836e-06 0)
(-0.00218261 -2.30827e-06 0)
(-0.00217346 -2.83593e-06 0)
(-0.00216246 -3.36067e-06 0)
(-0.0021496 -3.88175e-06 0)
(-0.0021349 -4.39841e-06 0)
(-0.00211839 -4.90988e-06 0)
(-0.00210008 -5.41543e-06 0)
(-0.00208 -5.91429e-06 0)
(-0.00205816 -6.40572e-06 0)
(-0.0020346 -6.88901e-06 0)
(-0.00200934 -7.36334e-06 0)
(-0.00198243 -7.82795e-06 0)
(-0.0019539 -8.28206e-06 0)
(-0.00192378 -8.72489e-06 0)
(-0.00189212 -9.15568e-06 0)
(-0.00185897 -9.57365e-06 0)
(-0.00182436 -9.97802e-06 0)
(-0.00178835 -1.0368e-05 0)
(-0.00175099 -1.07428e-05 0)
(-0.00171234 -1.11016e-05 0)
(-0.00167246 -1.14438e-05 0)
(-0.0016314 -1.17685e-05 0)
(-0.00158923 -1.2075e-05 0)
(-0.00154601 -1.23626e-05 0)
(-0.00150181 -1.26304e-05 0)
(-0.00145672 -1.28777e-05 0)
(-0.00141078 -1.31038e-05 0)
(-0.0013641 -1.3308e-05 0)
(-0.00131673 -1.34896e-05 0)
(-0.00126877 -1.3648e-05 0)
(-0.00122029 -1.37823e-05 0)
(-0.00117139 -1.38921e-05 0)
(-0.00112215 -1.39766e-05 0)
(-0.00107265 -1.40351e-05 0)
(-0.001023 -1.40672e-05 0)
(-0.000973285 -1.40723e-05 0)
(-0.0009236 -1.40497e-05 0)
(-0.000874043 -1.3999e-05 0)
(-0.000824714 -1.39196e-05 0)
(-0.000775713 -1.38111e-05 0)
(-0.000727144 -1.3673e-05 0)
(-0.000679108 -1.35049e-05 0)
(-0.000631712 -1.33066e-05 0)
(-0.00058506 -1.30775e-05 0)
(-0.00053926 -1.28175e-05 0)
(-0.000494418 -1.25261e-05 0)
(-0.000450642 -1.22033e-05 0)
(-0.000408041 -1.18489e-05 0)
(-0.000366723 -1.14628e-05 0)
(-0.000326795 -1.10449e-05 0)
(-0.000288365 -1.05953e-05 0)
(-0.00025154 -1.01141e-05 0)
(-0.000216425 -9.60158e-06 0)
(-0.000183124 -9.05789e-06 0)
(-0.000151739 -8.48355e-06 0)
(-0.00012237 -7.87918e-06 0)
(-9.51115e-05 -7.24555e-06 0)
(-7.0056e-05 -6.58363e-06 0)
(-4.72898e-05 -5.8947e-06 0)
(-2.68931e-05 -5.18036e-06 0)
(-8.93804e-06 -4.44267e-06 0)
(6.51295e-06 -3.68426e-06 0)
(1.94096e-05 -2.90854e-06 0)
(2.9717e-05 -2.11989e-06 0)
(3.74196e-05 -1.32409e-06 0)
(4.25262e-05 -5.28846e-07 0)
(4.5078e-05 2.55431e-07 0)
(4.51576e-05 1.01422e-06 0)
(4.29036e-05 1.72666e-06 0)
(3.85298e-05 2.36211e-06 0)
(3.23556e-05 2.87428e-06 0)
(2.48481e-05 3.19293e-06 0)
(1.66729e-05 3.21333e-06 0)
(8.78094e-06 2.77923e-06 0)
(2.64715e-06 1.698e-06 0)
(1.2396e-07 1.24194e-07 0)
(1.76129e-06 -2.8666e-06 0)
(9.39235e-06 -9.45381e-06 0)
(2.31798e-05 -1.34518e-05 0)
(3.94561e-05 -1.47475e-05 0)
(5.53456e-05 -1.3968e-05 0)
(6.88706e-05 -1.16858e-05 0)
(7.84874e-05 -8.34344e-06 0)
(8.30456e-05 -4.27111e-06 0)
(8.17136e-05 2.92524e-07 0)
(7.39164e-05 5.17151e-06 0)
(5.92712e-05 1.02392e-05 0)
(3.7549e-05 1.53991e-05 0)
(8.63473e-06 2.05789e-05 0)
(-2.74941e-05 2.57247e-05 0)
(-7.0789e-05 3.0794e-05 0)
(-0.000121144 3.5753e-05 0)
(-0.000178408 4.05766e-05 0)
(-0.000242396 4.52446e-05 0)
(-0.000312892 4.9741e-05 0)
(-0.00038966 5.40547e-05 0)
(-0.000472445 5.8176e-05 0)
(-0.000560977 6.20972e-05 0)
(-0.000654977 6.58135e-05 0)
(-0.000754156 6.93209e-05 0)
(-0.000858221 7.26165e-05 0)
(-0.000966873 7.56995e-05 0)
(-0.00107981 7.8569e-05 0)
(-0.00119673 8.12246e-05 0)
(-0.00131732 8.3667e-05 0)
(-0.0014413 8.58977e-05 0)
(-0.00156834 8.79184e-05 0)
(-0.00169816 8.97307e-05 0)
(-0.00183045 9.13372e-05 0)
(-0.00196492 9.27404e-05 0)
(-0.00210129 9.3943e-05 0)
(-0.00223925 9.49475e-05 0)
(-0.00237853 9.57573e-05 0)
(-0.00251885 9.63764e-05 0)
(-0.00265994 9.68078e-05 0)
(-0.00280151 9.70551e-05 0)
(-0.00294332 9.71222e-05 0)
(-0.0030851 9.70125e-05 0)
(-0.00322659 9.673e-05 0)
(-0.00336754 9.62784e-05 0)
(-0.00350772 9.56615e-05 0)
(-0.00364689 9.48837e-05 0)
(-0.0037848 9.39489e-05 0)
(-0.00392124 9.2861e-05 0)
(-0.00405599 9.16242e-05 0)
(-0.00418883 9.02426e-05 0)
(-0.00431955 8.87204e-05 0)
(-0.00444795 8.70614e-05 0)
(-0.00457383 8.52699e-05 0)
(-0.004697 8.335e-05 0)
(-0.00481728 8.13062e-05 0)
(-0.00493449 7.91426e-05 0)
(-0.00504845 7.6863e-05 0)
(-0.005159 7.44718e-05 0)
(-0.00526598 7.19733e-05 0)
(-0.00536923 6.93718e-05 0)
(-0.00546861 6.66714e-05 0)
(-0.00556398 6.38765e-05 0)
(-0.00565519 6.09913e-05 0)
(-0.00574212 5.80201e-05 0)
(-0.00582465 5.49673e-05 0)
(-0.00590266 5.1837e-05 0)
(-0.00597604 4.86337e-05 0)
(-0.00604469 4.53616e-05 0)
(-0.00610851 4.20255e-05 0)
(-0.0061674 3.86297e-05 0)
(-0.0062213 3.51787e-05 0)
(-0.0062701 3.16769e-05 0)
(-0.00631376 2.81287e-05 0)
(-0.0063522 2.45389e-05 0)
(-0.00638536 2.09121e-05 0)
(-0.00641319 1.72528e-05 0)
(-0.00643566 1.35658e-05 0)
(-0.00645272 9.85589e-06 0)
(-0.00646434 6.1278e-06 0)
(-0.00647051 2.38635e-06 0)
(-0.0064712 -1.36364e-06 0)
(-0.00646641 -5.11726e-06 0)
(-0.00645613 -8.86957e-06 0)
(-0.00644037 -1.26155e-05 0)
(-0.00641915 -1.635e-05 0)
(-0.00639249 -2.00679e-05 0)
(-0.00636041 -2.37643e-05 0)
(-0.00632295 -2.7434e-05 0)
(-0.00628016 -3.10717e-05 0)
(-0.00623208 -3.46722e-05 0)
(-0.00617877 -3.82301e-05 0)
(-0.0061203 -4.17401e-05 0)
(-0.00605675 -4.5197e-05 0)
(-0.0059882 -4.85954e-05 0)
(-0.00591473 -5.193e-05 0)
(-0.00583644 -5.51951e-05 0)
(-0.00575345 -5.83854e-05 0)
(-0.00566586 -6.14955e-05 0)
(-0.0055738 -6.452e-05 0)
(-0.00547739 -6.74534e-05 0)
(-0.00537678 -7.02903e-05 0)
(-0.00527211 -7.30253e-05 0)
(-0.00516352 -7.56528e-05 0)
(-0.00505119 -7.81676e-05 0)
(-0.00493528 -8.05644e-05 0)
(-0.00481597 -8.28378e-05 0)
(-0.00469344 -8.49827e-05 0)
(-0.00456788 -8.69938e-05 0)
(-0.0044395 -8.88659e-05 0)
(-0.0043085 -9.0594e-05 0)
(-0.00417509 -9.2173e-05 0)
(-0.00403949 -9.35981e-05 0)
(-0.00390194 -9.48646e-05 0)
(-0.00376266 -9.59678e-05 0)
(-0.0036219 -9.69032e-05 0)
(-0.0034799 -9.76662e-05 0)
(-0.00333693 -9.82526e-05 0)
(-0.00319323 -9.86582e-05 0)
(-0.00304908 -9.88791e-05 0)
(-0.00290474 -9.89115e-05 0)
(-0.00276049 -9.87518e-05 0)
(-0.00261661 -9.83967e-05 0)
(-0.00247339 -9.7843e-05 0)
(-0.00233112 -9.70875e-05 0)
(-0.00219009 -9.61278e-05 0)
(-0.0020506 -9.49613e-05 0)
(-0.00191295 -9.35861e-05 0)
(-0.00177743 -9.20001e-05 0)
(-0.00164436 -9.0202e-05 0)
(-0.00151404 -8.81906e-05 0)
(-0.00138678 -8.59651e-05 0)
(-0.00126288 -8.35254e-05 0)
(-0.00114264 -8.08717e-05 0)
(-0.00102639 -7.80048e-05 0)
(-0.000914405 -7.4926e-05 0)
(-0.000806999 -7.16377e-05 0)
(-0.000704461 -6.81425e-05 0)
(-0.000607081 -6.44445e-05 0)
(-0.000515138 -6.05485e-05 0)
(-0.000428903 -5.64608e-05 0)
(-0.000348635 -5.21893e-05 0)
(-0.000274579 -4.77435e-05 0)
(-0.000206963 -4.31355e-05 0)
(-0.000145993 -3.838e-05 0)
(-9.18479e-05 -3.34949e-05 0)
(-4.46767e-05 -2.8503e-05 0)
(-4.58861e-06 -2.34323e-05 0)
(2.83551e-05 -1.83181e-05 0)
(5.41526e-05 -1.3205e-05 0)
(7.28764e-05 -8.15037e-06 0)
(8.46921e-05 -3.22794e-06 0)
(8.98835e-05 1.46548e-06 0)
(8.88846e-05 5.80108e-06 0)
(8.23226e-05 9.60513e-06 0)
(7.1073e-05 1.26411e-05 0)
(5.63273e-05 1.45885e-05 0)
(3.96428e-05 1.50235e-05 0)
(2.30022e-05 1.34076e-05 0)
(9.18087e-06 9.18382e-06 0)
(1.69581e-06 2.64581e-06 0)
(2.827e-06 -9.09632e-06 0)
(1.34222e-05 -2.32214e-05 0)
(3.11113e-05 -3.11281e-05 0)
(5.0897e-05 -3.31717e-05 0)
(6.91804e-05 -3.0462e-05 0)
(8.3387e-05 -2.41014e-05 0)
(9.14431e-05 -1.50233e-05 0)
(9.17044e-05 -3.97381e-06 0)
(8.2943e-05 8.46674e-06 0)
(6.4265e-05 2.18513e-05 0)
(3.50528e-05 3.58364e-05 0)
(-5.09513e-06 5.0156e-05 0)
(-5.63978e-05 6.46037e-05 0)
(-0.000118935 7.90175e-05 0)
(-0.000192672 9.32701e-05 0)
(-0.000277478 0.000107262 0)
(-0.000373151 0.000120912 0)
(-0.000479425 0.000134157 0)
(-0.000595988 0.000146947 0)
(-0.000722486 0.000159241 0)
(-0.000858536 0.00017101 0)
(-0.00100373 0.000182228 0)
(-0.00115762 0.000192876 0)
(-0.00131979 0.00020294 0)
(-0.00148975 0.00021241 0)
(-0.00166706 0.000221279 0)
(-0.00185122 0.000229543 0)
(-0.00204177 0.0002372 0)
(-0.00223823 0.000244249 0)
(-0.0024401 0.000250693 0)
(-0.00264691 0.000256535 0)
(-0.00285819 0.000261778 0)
(-0.00307345 0.000266429 0)
(-0.00329222 0.000270495 0)
(-0.00351403 0.000273982 0)
(-0.00373843 0.000276897 0)
(-0.00396496 0.00027925 0)
(-0.00419316 0.00028105 0)
(-0.00442259 0.000282306 0)
(-0.00465282 0.000283027 0)
(-0.00488341 0.000283224 0)
(-0.00511396 0.000282908 0)
(-0.00534404 0.000282089 0)
(-0.00557325 0.000280778 0)
(-0.0058012 0.000278986 0)
(-0.0060275 0.000276725 0)
(-0.00625178 0.000274006 0)
(-0.00647366 0.000270841 0)
(-0.00669279 0.000267241 0)
(-0.00690881 0.000263218 0)
(-0.0071214 0.000258783 0)
(-0.00733021 0.00025395 0)
(-0.00753494 0.00024873 0)
(-0.00773526 0.000243134 0)
(-0.00793087 0.000237176 0)
(-0.00812149 0.000230866 0)
(-0.00830683 0.000224218 0)
(-0.00848663 0.000217244 0)
(-0.00866062 0.000209956 0)
(-0.00882854 0.000202367 0)
(-0.00899016 0.000194488 0)
(-0.00914526 0.000186332 0)
(-0.00929359 0.000177912 0)
(-0.00943497 0.000169241 0)
(-0.00956917 0.000160331 0)
(-0.00969603 0.000151194 0)
(-0.00981535 0.000141844 0)
(-0.00992697 0.000132294 0)
(-0.0100307 0.000122556 0)
(-0.0101265 0.000112643 0)
(-0.0102141 0.000102569 0)
(-0.0102934 9.23467e-05 0)
(-0.0103644 8.19896e-05 0)
(-0.0104268 7.15111e-05 0)
(-0.0104807 6.09247e-05 0)
(-0.0105259 5.0244e-05 0)
(-0.0105623 3.94827e-05 0)
(-0.01059 2.86549e-05 0)
(-0.0106088 1.77746e-05 0)
(-0.0106188 6.85598e-06 0)
(-0.0106198 -4.08687e-06 0)
(-0.0106119 -1.50396e-05 0)
(-0.0105951 -2.59875e-05 0)
(-0.0105694 -3.6916e-05 0)
(-0.0105348 -4.78103e-05 0)
(-0.0104913 -5.86555e-05 0)
(-0.0104391 -6.94367e-05 0)
(-0.0103781 -8.01388e-05 0)
(-0.0103084 -9.07465e-05 0)
(-0.0102301 -0.000101245 0)
(-0.0101433 -0.000111617 0)
(-0.0100482 -0.00012185 0)
(-0.00994475 -0.000131926 0)
(-0.0098332 -0.00014183 0)
(-0.00971367 -0.000151546 0)
(-0.00958631 -0.000161059 0)
(-0.0094513 -0.000170353 0)
(-0.00930884 -0.000179412 0)
(-0.0091591 -0.00018822 0)
(-0.00900231 -0.000196762 0)
(-0.00883869 -0.000205021 0)
(-0.00866848 -0.000212982 0)
(-0.00849193 -0.00022063 0)
(-0.0083093 -0.000227948 0)
(-0.00812086 -0.000234921 0)
(-0.0079269 -0.000241534 0)
(-0.00772772 -0.000247772 0)
(-0.00752363 -0.000253619 0)
(-0.00731496 -0.000259062 0)
(-0.00710204 -0.000264084 0)
(-0.00688522 -0.000268673 0)
(-0.00666485 -0.000272814 0)
(-0.00644131 -0.000276492 0)
(-0.00621498 -0.000279696 0)
(-0.00598624 -0.000282411 0)
(-0.00575551 -0.000284626 0)
(-0.00552318 -0.000286328 0)
(-0.00528968 -0.000287505 0)
(-0.00505544 -0.000288145 0)
(-0.00482089 -0.00028824 0)
(-0.00458649 -0.000287778 0)
(-0.00435268 -0.000286749 0)
(-0.00411992 -0.000285146 0)
(-0.00388869 -0.00028296 0)
(-0.00365946 -0.000280184 0)
(-0.00343269 -0.000276812 0)
(-0.00320888 -0.000272837 0)
(-0.00298851 -0.000268256 0)
(-0.00277206 -0.000263065 0)
(-0.00256003 -0.000257261 0)
(-0.0023529 -0.000250844 0)
(-0.00215117 -0.000243815 0)
(-0.00195532 -0.000236174 0)
(-0.00176583 -0.000227926 0)
(-0.00158318 -0.000219077 0)
(-0.00140785 -0.000209634 0)
(-0.00124029 -0.000199609 0)
(-0.00108096 -0.000189014 0)
(-0.000930292 -0.000177866 0)
(-0.000788705 -0.000166186 0)
(-0.000656598 -0.000154001 0)
(-0.000534344 -0.000141341 0)
(-0.000422285 -0.000128244 0)
(-0.000320724 -0.000114759 0)
(-0.000229922 -0.000100942 0)
(-0.000150085 -8.68623e-05 0)
(-8.13526e-05 -7.2607e-05 0)
(-2.37872e-05 -5.82824e-05 0)
(2.26468e-05 -4.40211e-05 0)
(5.81025e-05 -2.99896e-05 0)
(8.28779e-05 -1.6398e-05 0)
(9.74487e-05 -3.51364e-06 0)
(0.000102509 8.32118e-06 0)
(9.90229e-05 1.86656e-05 0)
(8.82811e-05 2.69525e-05 0)
(7.19693e-05 3.24625e-05 0)
(5.2191e-05 3.43123e-05 0)
(3.14922e-05 3.14835e-05 0)
(1.34059e-05 2.30039e-05 0)
(2.77564e-06 8.77495e-06 0)
(3.20811e-06 -1.69461e-05 0)
(1.47631e-05 -3.94813e-05 0)
(3.3225e-05 -5.09213e-05 0)
(5.27385e-05 -5.265e-05 0)
(6.91803e-05 -4.64218e-05 0)
(7.96437e-05 -3.39226e-05 0)
(8.17091e-05 -1.6619e-05 0)
(7.34311e-05 4.27202e-06 0)
(5.33012e-05 2.77698e-05 0)
(2.01956e-05 5.30937e-05 0)
(-2.66952e-05 7.9621e-05 0)
(-8.79101e-05 0.000106861 0)
(-0.000163772 0.000134421 0)
(-0.00025442 0.000161989 0)
(-0.000359842 0.000189316 0)
(-0.000479904 0.000216201 0)
(-0.000614371 0.000242482 0)
(-0.000762921 0.000268031 0)
(-0.000925165 0.000292743 0)
(-0.00110066 0.000316534 0)
(-0.00128891 0.000339337 0)
(-0.00148939 0.000361101 0)
(-0.00170153 0.000381783 0)
(-0.00192477 0.000401351 0)
(-0.00215848 0.000419782 0)
(-0.00240206 0.000437058 0)
(-0.00265488 0.000453167 0)
(-0.00291629 0.000468104 0)
(-0.00318567 0.000481867 0)
(-0.00346236 0.000494455 0)
(-0.00374572 0.000505873 0)
(-0.0040351 0.000516127 0)
(-0.00432988 0.000525228 0)
(-0.0046294 0.000533185 0)
(-0.00493304 0.000540012 0)
(-0.00524017 0.000545723 0)
(-0.00555018 0.000550333 0)
(-0.00586245 0.000553858 0)
(-0.00617639 0.000556318 0)
(-0.0064914 0.000557729 0)
(-0.0068069 0.000558112 0)
(-0.00712231 0.000557486 0)
(-0.00743708 0.000555872 0)
(-0.00775066 0.00055329 0)
(-0.00806251 0.000549763 0)
(-0.0083721 0.000545312 0)
(-0.00867892 0.000539959 0)
(-0.00898246 0.000533726 0)
(-0.00928223 0.000526638 0)
(-0.00957777 0.000518715 0)
(-0.00986859 0.000509982 0)
(-0.0101543 0.000500462 0)
(-0.0104343 0.000490178 0)
(-0.0107084 0.000479154 0)
(-0.010976 0.000467415 0)
(-0.0112368 0.000454982 0)
(-0.0114903 0.000441881 0)
(-0.0117363 0.000428137 0)
(-0.0119743 0.000413773 0)
(-0.012204 0.000398813 0)
(-0.0124251 0.000383282 0)
(-0.0126373 0.000367205 0)
(-0.0128402 0.000350607 0)
(-0.0130336 0.000333511 0)
(-0.0132171 0.000315944 0)
(-0.0133906 0.000297931 0)
(-0.0135538 0.000279496 0)
(-0.0137065 0.000260666 0)
(-0.0138484 0.000241466 0)
(-0.0139793 0.000221921 0)
(-0.0140991 0.000202058 0)
(-0.0142076 0.000181903 0)
(-0.0143046 0.000161482 0)
(-0.0143899 0.000140822 0)
(-0.0144635 0.00011995 0)
(-0.0145253 9.88929e-05 0)
(-0.0145751 7.76775e-05 0)
(-0.0146128 5.63315e-05 0)
(-0.0146385 3.48828e-05 0)
(-0.014652 1.33593e-05 0)
(-0.0146533 -8.21084e-06 0)
(-0.0146424 -2.97992e-05 0)
(-0.0146193 -5.1377e-05 0)
(-0.014584 -7.29153e-05 0)
(-0.0145365 -9.4385e-05 0)
(-0.014477 -0.000115757 0)
(-0.0144054 -0.000137001 0)
(-0.0143218 -0.000158087 0)
(-0.0142264 -0.000178986 0)
(-0.0141192 -0.000199668 0)
(-0.0140004 -0.000220101 0)
(-0.0138701 -0.000240256 0)
(-0.0137286 -0.000260101 0)
(-0.0135759 -0.000279606 0)
(-0.0134123 -0.000298739 0)
(-0.0132381 -0.000317471 0)
(-0.0130533 -0.000335769 0)
(-0.0128584 -0.000353603 0)
(-0.0126536 -0.000370942 0)
(-0.0124391 -0.000387754 0)
(-0.0122153 -0.000404008 0)
(-0.0119825 -0.000419675 0)
(-0.011741 -0.000434722 0)
(-0.0114912 -0.00044912 0)
(-0.0112335 -0.000462838 0)
(-0.0109683 -0.000475846 0)
(-0.0106959 -0.000488115 0)
(-0.0104169 -0.000499615 0)
(-0.0101315 -0.000510317 0)
(-0.00984041 -0.000520193 0)
(-0.00954396 -0.000529215 0)
(-0.00924267 -0.000537355 0)
(-0.00893705 -0.000544587 0)
(-0.00862762 -0.000550886 0)
(-0.0083149 -0.000556224 0)
(-0.00799944 -0.000560579 0)
(-0.00768181 -0.000563927 0)
(-0.00736257 -0.000566245 0)
(-0.00704231 -0.000567512 0)
(-0.00672163 -0.000567706 0)
(-0.00640112 -0.00056681 0)
(-0.0060814 -0.000564805 0)
(-0.0057631 -0.000561674 0)
(-0.00544685 -0.000557404 0)
(-0.00513329 -0.000551979 0)
(-0.00482306 -0.00054539 0)
(-0.00451682 -0.000537625 0)
(-0.00421522 -0.000528677 0)
(-0.00391891 -0.000518541 0)
(-0.00362856 -0.000507213 0)
(-0.00334482 -0.000494693 0)
(-0.00306835 -0.000480984 0)
(-0.0027998 -0.000466091 0)
(-0.00253982 -0.000450024 0)
(-0.00228904 -0.000432796 0)
(-0.00204809 -0.000414425 0)
(-0.00181757 -0.000394935 0)
(-0.0015981 -0.000374355 0)
(-0.00139023 -0.000352722 0)
(-0.00119453 -0.00033008 0)
(-0.00101149 -0.000306485 0)
(-0.000841608 -0.000282001 0)
(-0.000685312 -0.000256709 0)
(-0.000542987 -0.000230706 0)
(-0.000414951 -0.000204107 0)
(-0.00030145 -0.000177056 0)
(-0.000202637 -0.000149724 0)
(-0.000118562 -0.000122323 0)
(-4.91439e-05 -9.51106e-05 0)
(5.84865e-06 -6.84068e-05 0)
(4.68329e-05 -4.26074e-05 0)
(7.44457e-05 -1.82055e-05 0)
(8.95859e-05 4.18375e-06 0)
(9.3464e-05 2.37926e-05 0)
(8.76581e-05 3.96679e-05 0)
(7.41722e-05 5.06439e-05 0)
(5.54465e-05 5.53372e-05 0)
(3.43832e-05 5.21938e-05 0)
(1.50425e-05 3.96595e-05 0)
(3.21175e-06 1.66655e-05 0)
(3.13432e-06 -2.49304e-05 0)
(1.40399e-05 -5.54286e-05 0)
(3.06531e-05 -6.92702e-05 0)
(4.67347e-05 -6.91267e-05 0)
(5.79013e-05 -5.75259e-05 0)
(6.10131e-05 -3.67834e-05 0)
(5.34631e-05 -8.9166e-06 0)
(3.31114e-05 2.43776e-05 0)
(-1.71804e-06 6.16962e-05 0)
(-5.2312e-05 0.000101895 0)
(-0.000119611 0.000144045 0)
(-0.000204267 0.000187393 0)
(-0.00030668 0.000231329 0)
(-0.000427044 0.000275359 0)
(-0.00056537 0.00031908 0)
(-0.000721529 0.000362168 0)
(-0.00089526 0.000404355 0)
(-0.0010862 0.000445427 0)
(-0.00129391 0.000485208 0)
(-0.00151786 0.000523554 0)
(-0.00175747 0.000560351 0)
(-0.00201211 0.000595507 0)
(-0.00228112 0.000628948 0)
(-0.00256379 0.000660616 0)
(-0.00285939 0.000690468 0)
(-0.00316716 0.000718471 0)
(-0.00348636 0.000744601 0)
(-0.00381619 0.000768844 0)
(-0.00415587 0.000791193 0)
(-0.00450461 0.000811645 0)
(-0.00486162 0.000830204 0)
(-0.0052261 0.00084688 0)
(-0.00559725 0.000861684 0)
(-0.0059743 0.000874631 0)
(-0.00635645 0.000885741 0)
(-0.00674294 0.000895035 0)
(-0.00713299 0.000902536 0)
(-0.00752584 0.00090827 0)
(-0.00792074 0.000912266 0)
(-0.00831696 0.000914551 0)
(-0.00871377 0.000915156 0)
(-0.00911046 0.000914113 0)
(-0.00950631 0.000911455 0)
(-0.00990065 0.000907214 0)
(-0.0102928 0.000901426 0)
(-0.0106821 0.000894126 0)
(-0.0110679 0.000885348 0)
(-0.0114496 0.00087513 0)
(-0.0118265 0.000863509 0)
(-0.0121981 0.000850521 0)
(-0.0125638 0.000836204 0)
(-0.012923 0.000820596 0)
(-0.0132751 0.000803736 0)
(-0.0136197 0.000785662 0)
(-0.0139562 0.000766412 0)
(-0.0142841 0.000746026 0)
(-0.0146029 0.000724544 0)
(-0.0149121 0.000702004 0)
(-0.0152114 0.000678447 0)
(-0.0155002 0.000653912 0)
(-0.0157782 0.000628441 0)
(-0.0160449 0.000602072 0)
(-0.0163 0.000574847 0)
(-0.0165431 0.000546807 0)
(-0.0167739 0.000517992 0)
(-0.016992 0.000488445 0)
(-0.0171971 0.000458206 0)
(-0.017389 0.000427319 0)
(-0.0175673 0.000395824 0)
(-0.0177319 0.000363764 0)
(-0.0178824 0.000331182 0)
(-0.0180187 0.000298122 0)
(-0.0181405 0.000264626 0)
(-0.0182477 0.000230738 0)
(-0.0183402 0.000196503 0)
(-0.0184177 0.000161965 0)
(-0.0184802 0.000127169 0)
(-0.0185276 9.21596e-05 0)
(-0.0185597 5.6983e-05 0)
(-0.0185765 2.1685e-05 0)
(-0.0185781 -1.36881e-05 0)
(-0.0185642 -4.90894e-05 0)
(-0.0185351 -8.44717e-05 0)
(-0.0184906 -0.000119788 0)
(-0.0184308 -0.000154989 0)
(-0.0183558 -0.000190028 0)
(-0.0182656 -0.000224855 0)
(-0.0181605 -0.000259423 0)
(-0.0180404 -0.000293681 0)
(-0.0179055 -0.00032758 0)
(-0.0177561 -0.00036107 0)
(-0.0175922 -0.000394101 0)
(-0.0174142 -0.000426622 0)
(-0.0172221 -0.000458584 0)
(-0.0170164 -0.000489935 0)
(-0.0167973 -0.000520625 0)
(-0.016565 -0.000550603 0)
(-0.0163199 -0.000579818 0)
(-0.0160624 -0.000608219 0)
(-0.0157927 -0.000635756 0)
(-0.0155114 -0.000662378 0)
(-0.0152187 -0.000688034 0)
(-0.0149152 -0.000712675 0)
(-0.0146012 -0.000736251 0)
(-0.0142773 -0.000758712 0)
(-0.0139439 -0.000780009 0)
(-0.0136016 -0.000800095 0)
(-0.0132509 -0.000818921 0)
(-0.0128923 -0.00083644 0)
(-0.0125264 -0.000852606 0)
(-0.0121539 -0.000867375 0)
(-0.0117753 -0.000880701 0)
(-0.0113912 -0.000892542 0)
(-0.0110023 -0.000902854 0)
(-0.0106093 -0.000911599 0)
(-0.0102129 -0.000918736 0)
(-0.00981371 -0.000924227 0)
(-0.00941249 -0.000928037 0)
(-0.00900997 -0.00093013 0)
(-0.00860689 -0.000930474 0)
(-0.008204 -0.00092904 0)
(-0.00780207 -0.000925798 0)
(-0.00740189 -0.000920723 0)
(-0.00700423 -0.000913791 0)
(-0.00660989 -0.000904981 0)
(-0.00621967 -0.000894277 0)
(-0.00583439 -0.000881664 0)
(-0.00545485 -0.00086713 0)
(-0.00508187 -0.000850669 0)
(-0.00471625 -0.000832277 0)
(-0.00435882 -0.000811956 0)
(-0.00401038 -0.000789712 0)
(-0.00367174 -0.000765558 0)
(-0.00334368 -0.000739511 0)
(-0.003027 -0.000711598 0)
(-0.00272244 -0.00068185 0)
(-0.00243076 -0.000650311 0)
(-0.00215269 -0.000617032 0)
(-0.00188891 -0.000582077 0)
(-0.00164008 -0.000545525 0)
(-0.00140683 -0.000507468 0)
(-0.00118971 -0.000468021 0)
(-0.000989253 -0.000427319 0)
(-0.00080589 -0.000385524 0)
(-0.000639991 -0.000342832 0)
(-0.000491827 -0.000299477 0)
(-0.00036156 -0.000255741 0)
(-0.00024922 -0.000211966 0)
(-0.000154687 -0.000168567 0)
(-7.76606e-05 -0.000126047 0)
(-1.76274e-05 -8.5021e-05 0)
(2.61718e-05 -4.62395e-05 0)
(5.47845e-05 -1.0621e-05 0)
(6.95903e-05 2.07145e-05 0)
(7.23533e-05 4.64096e-05 0)
(6.52741e-05 6.48394e-05 0)
(5.10005e-05 7.41022e-05 0)
(3.26701e-05 7.20531e-05 0)
(1.46574e-05 5.64072e-05 0)
(3.19888e-06 2.48557e-05 0)
(2.76921e-06 -3.21014e-05 0)
(1.18423e-05 -6.90921e-05 0)
(2.44933e-05 -8.36568e-05 0)
(3.4577e-05 -7.97404e-05 0)
(3.76442e-05 -6.0699e-05 0)
(3.04502e-05 -2.95029e-05 0)
(1.02843e-05 1.12726e-05 0)
(-2.50832e-05 5.94465e-05 0)
(-7.74316e-05 0.00011319 0)
(-0.000148136 0.000170985 0)
(-0.000238226 0.000231578 0)
(-0.000348423 0.000293934 0)
(-0.000479187 0.000357203 0)
(-0.000630746 0.000420687 0)
(-0.000803137 0.00048381 0)
(-0.000996226 0.0005461 0)
(-0.00120974 0.000607167 0)
(-0.00144328 0.00066669 0)
(-0.00169635 0.000724408 0)
(-0.00196837 0.000780105 0)
(-0.00225869 0.000833604 0)
(-0.00256658 0.000884764 0)
(-0.00289128 0.000933469 0)
(-0.00323199 0.000979629 0)
(-0.00358786 0.00102317 0)
(-0.00395802 0.00106404 0)
(-0.0043416 0.00110221 0)
(-0.00473767 0.00113763 0)
(-0.00514533 0.0011703 0)
(-0.00556365 0.00120022 0)
(-0.0059917 0.00122737 0)
(-0.00642854 0.00125178 0)
(-0.00687325 0.00127345 0)
(-0.0073249 0.0012924 0)
(-0.00778255 0.00130867 0)
(-0.00824531 0.00132227 0)
(-0.00871224 0.00133325 0)
(-0.00918247 0.00134163 0)
(-0.0096551 0.00134746 0)
(-0.0101292 0.00135077 0)
(-0.0106041 0.00135162 0)
(-0.0110787 0.00135004 0)
(-0.0115523 0.00134608 0)
(-0.0120241 0.00133979 0)
(-0.0124932 0.00133123 0)
(-0.0129589 0.00132043 0)
(-0.0134204 0.00130746 0)
(-0.0138769 0.00129236 0)
(-0.0143278 0.00127519 0)
(-0.0147723 0.00125601 0)
(-0.0152096 0.00123486 0)
(-0.0156392 0.00121181 0)
(-0.0160604 0.0011869 0)
(-0.0164725 0.00116021 0)
(-0.0168749 0.00113178 0)
(-0.0172671 0.00110167 0)
(-0.0176483 0.00106994 0)
(-0.0180182 0.00103665 0)
(-0.018376 0.00100185 0)
(-0.0187214 0.000965612 0)
(-0.0190538 0.000927986 0)
(-0.0193728 0.000889035 0)
(-0.0196778 0.000848819 0)
(-0.0199685 0.000807398 0)
(-0.0202444 0.000764833 0)
(-0.0205052 0.000721185 0)
(-0.0207505 0.000676515 0)
(-0.0209799 0.000630887 0)
(-0.0211931 0.000584361 0)
(-0.0213898 0.000537002 0)
(-0.0215697 0.000488872 0)
(-0.0217326 0.000440035 0)
(-0.0218782 0.000390556 0)
(-0.0220063 0.000340499 0)
(-0.0221167 0.00028993 0)
(-0.0222093 0.000238915 0)
(-0.0222839 0.000187519 0)
(-0.0223404 0.000135811 0)
(-0.0223787 8.38568e-05 0)
(-0.0223987 3.17254e-05 0)
(-0.0224004 -2.05149e-05 0)
(-0.0223838 -7.27947e-05 0)
(-0.0223487 -0.000125044 0)
(-0.0222954 -0.000177194 0)
(-0.0222238 -0.000229171 0)
(-0.0221339 -0.000280907 0)
(-0.022026 -0.000332327 0)
(-0.0219001 -0.000383361 0)
(-0.0217564 -0.000433936 0)
(-0.021595 -0.000483977 0)
(-0.0214162 -0.000533412 0)
(-0.0212202 -0.000582166 0)
(-0.0210072 -0.000630166 0)
(-0.0207775 -0.000677337 0)
(-0.0205314 -0.000723604 0)
(-0.0202693 -0.000768893 0)
(-0.0199915 -0.000813128 0)
(-0.0196984 -0.000856235 0)
(-0.0193904 -0.000898138 0)
(-0.019068 -0.000938764 0)
(-0.0187316 -0.000978037 0)
(-0.0183816 -0.00101588 0)
(-0.0180187 -0.00105223 0)
(-0.0176433 -0.00108701 0)
(-0.0172561 -0.00112014 0)
(-0.0168575 -0.00115155 0)
(-0.0164482 -0.00118117 0)
(-0.0160289 -0.00120894 0)
(-0.0156003 -0.00123478 0)
(-0.0151629 -0.00125862 0)
(-0.0147175 -0.00128041 0)
(-0.0142649 -0.00130007 0)
(-0.0138057 -0.00131754 0)
(-0.0133408 -0.00133276 0)
(-0.012871 -0.00134567 0)
(-0.012397 -0.00135622 0)
(-0.0119197 -0.00136434 0)
(-0.01144 -0.00137 0)
(-0.0109587 -0.00137313 0)
(-0.0104766 -0.00137369 0)
(-0.00999481 -0.00137164 0)
(-0.00951407 -0.00136693 0)
(-0.00903535 -0.00135953 0)
(-0.00855958 -0.00134942 0)
(-0.00808769 -0.00133655 0)
(-0.00762065 -0.0013209 0)
(-0.0071594 -0.00130246 0)
(-0.00670491 -0.00128122 0)
(-0.00625811 -0.00125715 0)
(-0.00581999 -0.00123027 0)
(-0.00539149 -0.00120057 0)
(-0.00497355 -0.00116808 0)
(-0.00456713 -0.0011328 0)
(-0.00417314 -0.00109478 0)
(-0.0037925 -0.00105405 0)
(-0.0034261 -0.00101067 0)
(-0.0030748 -0.000964698 0)
(-0.00273944 -0.000916222 0)
(-0.00242081 -0.000865341 0)
(-0.00211968 -0.000812173 0)
(-0.00183675 -0.000756865 0)
(-0.00157267 -0.000699586 0)
(-0.00132802 -0.000640542 0)
(-0.00110328 -0.000579976 0)
(-0.000898876 -0.000518179 0)
(-0.000715086 -0.000455495 0)
(-0.000552079 -0.000392337 0)
(-0.000409874 -0.000329199 0)
(-0.000288317 -0.000266672 0)
(-0.000187056 -0.000205467 0)
(-0.00010551 -0.000146437 0)
(-4.28348e-05 -9.06117e-05 0)
(2.11456e-06 -3.92267e-05 0)
(3.0823e-05 6.23514e-06 0)
(4.51628e-05 4.40061e-05 0)
(4.74429e-05 7.19979e-05 0)
(4.04258e-05 8.77775e-05 0)
(2.73831e-05 8.85741e-05 0)
(1.27945e-05 7.13052e-05 0)
(2.89435e-06 3.24118e-05 0)
(2.22351e-06 -3.78191e-05 0)
(8.60549e-06 -7.89631e-05 0)
(1.56717e-05 -9.20379e-05 0)
(1.77069e-05 -8.21234e-05 0)
(1.03958e-05 -5.33787e-05 0)
(-9.52539e-06 -9.42221e-06 0)
(-4.47787e-05 4.66232e-05 0)
(-9.76186e-05 0.000112096 0)
(-0.000169855 0.000184748 0)
(-0.000262907 0.000262687 0)
(-0.000377842 0.000344327 0)
(-0.000515424 0.000428346 0)
(-0.000676139 0.000513642 0)
(-0.00086024 0.000599295 0)
(-0.00106777 0.000684542 0)
(-0.00129859 0.000768748 0)
(-0.00155241 0.000851384 0)
(-0.00182881 0.000932012 0)
(-0.00212724 0.00101027 0)
(-0.00244706 0.00108585 0)
(-0.00278757 0.00115852 0)
(-0.00314795 0.00122806 0)
(-0.00352738 0.00129431 0)
(-0.00392493 0.00135715 0)
(-0.00433969 0.00141646 0)
(-0.00477067 0.00147216 0)
(-0.00521687 0.0015242 0)
(-0.00567727 0.00157252 0)
(-0.00615084 0.00161711 0)
(-0.00663653 0.00165795 0)
(-0.00713328 0.00169503 0)
(-0.00764004 0.00172837 0)
(-0.00815574 0.00175797 0)
(-0.00867933 0.00178387 0)
(-0.00920975 0.00180608 0)
(-0.00974596 0.00182466 0)
(-0.0102869 0.00183963 0)
(-0.0108316 0.00185105 0)
(-0.011379 0.00185897 0)
(-0.011928 0.00186344 0)
(-0.0124778 0.00186452 0)
(-0.0130273 0.00186227 0)
(-0.0135756 0.00185675 0)
(-0.0141217 0.00184803 0)
(-0.0146647 0.00183617 0)
(-0.0152037 0.00182125 0)
(-0.0157378 0.00180332 0)
(-0.0162662 0.00178248 0)
(-0.016788 0.00175878 0)
(-0.0173024 0.0017323 0)
(-0.0178085 0.00170312 0)
(-0.0183056 0.00167131 0)
(-0.018793 0.00163695 0)
(-0.0192698 0.00160012 0)
(-0.0197355 0.0015609 0)
(-0.0201892 0.00151936 0)
(-0.0206303 0.00147559 0)
(-0.0210582 0.00142966 0)
(-0.0214723 0.00138166 0)
(-0.0218719 0.00133166 0)
(-0.0222564 0.00127975 0)
(-0.0226254 0.00122602 0)
(-0.0229783 0.00117053 0)
(-0.0233146 0.00111339 0)
(-0.0236338 0.00105467 0)
(-0.0239354 0.00099445 0)
(-0.0242191 0.000932825 0)
(-0.0244844 0.000869877 0)
(-0.024731 0.000805692 0)
(-0.0249585 0.000740357 0)
(-0.0251665 0.000673959 0)
(-0.0253549 0.000606588 0)
(-0.0255232 0.000538332 0)
(-0.0256713 0.00046928 0)
(-0.025799 0.000399523 0)
(-0.025906 0.000329152 0)
(-0.0259921 0.000258259 0)
(-0.0260574 0.000186936 0)
(-0.0261015 0.000115277 0)
(-0.0261245 4.3375e-05 0)
(-0.0261263 -2.86743e-05 0)
(-0.0261069 -0.000100775 0)
(-0.0260662 -0.000172832 0)
(-0.0260044 -0.000244748 0)
(-0.0259214 -0.000316424 0)
(-0.0258173 -0.000387762 0)
(-0.0256924 -0.000458664 0)