/*--------------------------------*- C++ -*----------------------------------*\
  =========                 |
  \\      /  F ield         | OpenFOAM: The Open Source CFD Toolbox
   \\    /   O peration     | Website:  https://openfoam.org
    \\  /    A nd           | Version:  7
     \\/     M anipulation  |
\*---------------------------------------------------------------------------*/
FoamFile
{
    version     2.0;
    format      ascii;
    class       volScalarField;
    location    "0.275";
    object      p;
}
// * * * * * * * * * * * * * * * * * * * * * * * * * * * * * * * * * * * * * //

dimensions      [0 2 -2 0 0 0 0];

internalField   nonuniform List<scalar> 
6400
(
3.03979e-06
1.74002e-05
-0.000489262
-0.00152227
-0.00296456
-0.00470593
-0.00664623
-0.00869602
-0.010778
-0.0128268
-0.0147872
-0.0166132
-0.0182663
-0.0197148
-0.0209329
-0.0218999
-0.0225996
-0.02302
-0.0231524
-0.0229915
-0.0225347
-0.0217823
-0.0207365
-0.019402
-0.0177853
-0.0158946
-0.0137397
-0.0113319
-0.00868389
-0.00580951
-0.00272374
0.000557374
0.00401686
0.00763687
0.0113988
0.0152831
0.01927
0.0233387
0.0274681
0.0316368
0.035823
0.0400045
0.0441592
0.0482648
0.052299
0.0562398
0.0600653
0.0637541
0.0672854
0.0706388
0.073795
0.0767354
0.0794427
0.0819009
0.0840953
0.0860129
0.0876425
0.0889749
0.0900031
0.0907225
0.0911312
0.0912302
0.0910233
0.0905181
0.0897255
0.0886606
0.0873427
0.085796
0.0840499
0.0821395
0.0801065
0.0780001
0.0758779
0.0738068
0.0718643
0.0701388
0.0687276
0.0677347
0.0672669
0.0673045
-6.56956e-06
6.76669e-06
-0.000447095
-0.00133069
-0.00254452
-0.00400933
-0.00564949
-0.00739284
-0.00917411
-0.0109359
-0.0126285
-0.0142093
-0.0156425
-0.0168978
-0.01795
-0.0187788
-0.0193678
-0.0197048
-0.0197806
-0.0195891
-0.019127
-0.0183935
-0.0173901
-0.0161203
-0.0145896
-0.012805
-0.0107754
-0.00851076
-0.00602266
-0.00332375
-0.000427838
0.00265028
0.00589485
0.00928928
0.0128162
0.0164574
0.0201943
0.0240075
0.0278772
0.0317834
0.0357057
0.0396232
0.0435153
0.0473611
0.0511399
0.054831
0.0584141
0.0618693
0.0651773
0.0683193
0.0712773
0.0740345
0.0765748
0.0788838
0.0809481
0.0827562
0.0842982
0.085566
0.0865538
0.0872582
0.0876781
0.0878152
0.0876741
0.0872628
0.0865924
0.0856781
0.0845388
0.0831977
0.0816831
0.0800281
0.0782717
0.0764588
0.0746407
0.0728759
0.0712298
0.0697738
0.0685811
0.0677266
0.0673034
0.0673418
0.000499763
0.000461591
7.65551e-06
-0.000808298
-0.00189891
-0.00320082
-0.00465297
-0.00619537
-0.00777243
-0.00933405
-0.0108359
-0.0122392
-0.0135108
-0.0146224
-0.01555
-0.0162742
-0.016779
-0.0170522
-0.0170845
-0.0168695
-0.0164036
-0.0156854
-0.0147158
-0.0134975
-0.0120352
-0.0103353
-0.00840557
-0.00625532
-0.00389509
-0.00133662
0.00140726
0.00432271
0.00739501
0.0106086
0.013947
0.0173932
0.0209296
0.024538
0.0281996
0.0318955
0.0356064
0.0393127
0.0429948
0.0466331
0.050208
0.0537
0.05709
0.0603593
0.0634898
0.0664639
0.0692648
0.0718768
0.0742851
0.0764762
0.078438
0.0801598
0.0816327
0.0828496
0.0838055
0.0844976
0.0849255
0.0850913
0.0849999
0.0846594
0.084081
0.0832794
0.0822728
0.0810833
0.0797375
0.0782664
0.076706
0.0750969
0.0734849
0.0719212
0.0704614
0.0691651
0.0680915
0.0673008
0.0668785
0.0668757
0.00153237
0.0013471
0.000823456
4.45391e-06
-0.00104339
-0.00226655
-0.00361324
-0.00503269
-0.00647728
-0.00790345
-0.00927203
-0.0105483
-0.0117019
-0.0127068
-0.0135409
-0.0141856
-0.014626
-0.0148503
-0.0148493
-0.0146168
-0.0141489
-0.0134441
-0.0125027
-0.0113272
-0.00992173
-0.00829189
-0.00644494
-0.00438945
-0.00213525
0.000306713
0.00292439
0.00570477
0.00863396
0.0116972
0.014879
0.0181633
0.0215331
0.0249714
0.0284603
0.0319818
0.0355174
0.0390488
0.0425572
0.0460239
0.0494303
0.0527581
0.055989
0.0591054
0.06209
0.0649263
0.0675985
0.0700917
0.0723921
0.074487
0.076365
0.0780164
0.0794329
0.0806081
0.0815374
0.0822185
0.0826514
0.0828384
0.0827845
0.0824976
0.0819884
0.0812711
0.0803629
0.0792846
0.0780609
0.0767205
0.0752959
0.0738239
0.0723453
0.0709047
0.06955
0.0683317
0.0673005
0.0665078
0.0660217
0.0658859
0.00298082
0.00256917
0.00191769
0.00104582
-9.40366e-06
-0.00120326
-0.00249181
-0.00383266
-0.00518552
-0.00651292
-0.00778073
-0.00895826
-0.0100184
-0.0109374
-0.0116952
-0.0122747
-0.0126619
-0.0128457
-0.0128176
-0.0125713
-0.0121033
-0.0114117
-0.0104968
-0.00936069
-0.00800703
-0.00644106
-0.00466946
-0.00270019
-0.000542421
0.00179356
0.00429643
0.00695392
0.00975289
0.0126794
0.0157187
0.0188556
0.0220741
0.0253577
0.0286896
0.0320527
0.0354294
0.0388021
0.042153
0.0454644
0.0487186
0.0518979
0.0549852
0.0579637
0.060817
0.0635293
0.0660858
0.0684723
0.0706758
0.0726844
0.0744874
0.0760756
0.0774413
0.0785785
0.0794833
0.0801535
0.0805892
0.0807928
0.0807692
0.080526
0.0800733
0.0794244
0.0785954
0.0776056
0.0764778
0.0752379
0.0739152
0.0725427
0.071156
0.0697938
0.0684972
0.0673086
0.0662712
0.0654288
0.0648226
0.0644748
0.00474295
0.00405469
0.00323223
0.00226706
0.00116295
-4.3081e-05
-0.00131381
-0.0026145
-0.00391154
-0.00517312
-0.0063698
-0.00747486
-0.00846438
-0.00931732
-0.0100155
-0.0105435
-0.0108886
-0.0110405
-0.0109913
-0.0107353
-0.0102689
-0.00959067
-0.00870059
-0.00760057
-0.00629402
-0.00478582
-0.0030822
-0.00119062
0.000880298
0.00312087
0.0055204
0.00806729
0.0107491
0.0135525
0.0164637
0.0194681
0.0225504
0.0256951
0.0288861
0.032107
0.0353412
0.0385717
0.0417817
0.0449542
0.0480722
0.0511191
0.0540784
0.0569341
0.0596705
0.0622728
0.0647266
0.0670185
0.0691362
0.0710683
0.0728048
0.0743368
0.0756572
0.0767604
0.0776425
0.0783017
0.0787379
0.0789536
0.0789533
0.0787442
0.0783357
0.07774
0.0769721
0.0760495
0.074993
0.0738258
0.0725742
0.0712671
0.0699357
0.0686133
0.0673343
0.0661343
0.0650502
0.0641186
0.0633494
0.0627386
0.00672799
0.00573484
0.00471165
0.00362162
0.00243472
0.00118151
-0.00010624
-0.00140054
-0.00267386
-0.00389946
-0.00505231
-0.00610941
-0.00705
-0.00785567
-0.00851032
-0.00900025
-0.009314
-0.00944233
-0.00937814
-0.00911634
-0.00865372
-0.00798882
-0.00712186
-0.00605463
-0.00479039
-0.00333374
-0.00169057
0.000132046
0.00212597
0.00428201
0.00659003
0.009039
0.0116171
0.0143116
0.0171095
0.0199966
0.0229587
0.0259807
0.0290473
0.0321429
0.0352514
0.0383568
0.0414429
0.0444934
0.0474921
0.050423
0.0532703
0.0560187
0.0586532
0.0611595
0.0635239
0.0657336
0.0677768
0.0696425
0.0713211
0.0728043
0.074085
0.075158
0.0760195
0.0766677
0.0771024
0.0773259
0.0773422
0.0771578
0.0767816
0.0762247
0.0755004
0.0746249
0.0736166
0.0724963
0.0712874
0.0700149
0.0687059
0.0673887
0.0660924
0.064846
0.0636814
0.0626292
0.0616671
0.060764
0.00885667
0.00754502
0.00630205
0.00506414
0.00376848
0.0024404
0.00110732
-0.000208593
-0.00148513
-0.00270017
-0.00383272
-0.00486328
-0.00577408
-0.00654923
-0.00717476
-0.00763866
-0.0079309
-0.00804337
-0.00796986
-0.00770591
-0.0072488
-0.00659735
-0.00575195
-0.00471443
-0.00348796
-0.002077
-0.000487195
0.00127473
0.00320099
0.00528282
0.00751054
0.00987363
0.0123608
0.01496
0.0176585
0.0204431
0.0232999
0.0262147
0.0291727
0.0321589
0.035158
0.0381546
0.0411329
0.0440775
0.0469728
0.0498033
0.0525538
0.0552097
0.0577565
0.0601803
0.062468
0.0646072
0.0665866
0.0683955
0.0700246
0.0714658
0.0727123
0.0737589
0.0746019
0.0752392
0.0756707
0.0758981
0.075925
0.0757572
0.0754026
0.0748713
0.0741753
0.073329
0.0723487
0.0712528
0.0700618
0.0687975
0.0674831
0.0661427
0.0648002
0.0634792
0.0622078
0.0610117
0.059837
0.058627
0.011062
0.00942789
0.00795403
0.0065521
0.00512834
0.00370394
0.00230296
0.00094262
-0.000359487
-0.00158535
-0.00271763
-0.00374007
-0.0046377
-0.00539703
-0.00600613
-0.00645473
-0.00673424
-0.00683773
-0.00675992
-0.0064971
-0.00604705
-0.00540901
-0.00458361
-0.00357281
-0.0023798
-0.00100896
0.00053426
0.00224335
0.00411081
0.00612825
0.00828635
0.010575
0.0129834
0.0155001
0.0181128
0.0208088
0.0235748
0.0263971
0.0292615
0.0321536
0.0350587
0.0379618
0.040848
0.043702
0.046509
0.049254
0.0519224
0.0544998
0.0569723
0.0593265
0.0615497
0.0636297
0.0655554
0.0673167
0.0689043
0.0703102
0.0715278
0.0725519
0.0733785
0.0740055
0.0744325
0.0746605
0.0746928
0.0745344
0.0741922
0.0736751
0.0729938
0.0721611
0.0711912
0.0701003
0.0689062
0.0676278
0.0662847
0.0648975
0.0634856
0.062068
0.0606698
0.0593129
0.0579139
0.056392
0.013288
0.0113335
0.00962326
0.00804647
0.00648042
0.0049433
0.00345662
0.00203344
0.000687365
-0.000567185
-0.00171614
-0.00274621
-0.003645
-0.00440126
-0.00500504
-0.00544775
-0.00572224
-0.00582278
-0.00574506
-0.00548613
-0.00504438
-0.00441951
-0.00361248
-0.00262542
-0.00146162
-0.000125447
0.00137773
0.00304157
0.00485881
0.00682131
0.00892009
0.0111454
0.0134869
0.0159333
0.0184731
0.0210939
0.023783
0.026527
0.0293124
0.0321251
0.034951
0.0377756
0.0405845
0.0433628
0.0460962
0.04877
0.0513702
0.0538828
0.0562941
0.0585912
0.0607614
0.0627931
0.0646753
0.0663979
0.0679518
0.0693292
0.0705232
0.0715286
0.0723413
0.0729589
0.0733805
0.0736067
0.0736401
0.0734849
0.073147
0.0726342
0.0719559
0.0711232
0.0701487
0.0690462
0.0678312
0.0665198
0.0651289
0.0636754
0.0621754
0.0606441
0.0591041
0.0575749
0.0559452
0.0541124
0.0154879
0.0132183
0.0112702
0.00951164
0.00779323
0.00613105
0.00454485
0.00304415
0.00163914
0.000341126
-0.000838705
-0.00188968
-0.00280179
-0.0035659
-0.0041739
-0.00461884
-0.00489496
-0.00499771
-0.00492374
-0.00467094
-0.00423833
-0.00362612
-0.00283563
-0.00186926
-0.000730432
0.000576434
0.00204599
0.00367199
0.00544733
0.00736408
0.00941351
0.0115862
0.0138721
0.0162603
0.0187397
0.0212983
0.0239238
0.0266033
0.0293237
0.0320713
0.0348324
0.0375929
0.0403388
0.0430558
0.0457297
0.0483464
0.050892
0.0533529
0.0557157
0.0579677
0.0600965
0.0620905
0.0639389
0.0656317
0.0671598
0.0685152
0.0696911
0.070682
0.0714836
0.0720931
0.0725091
0.0727317
0.0727628
0.0726057
0.0722654
0.0717486
0.0710633
0.0702191
0.069227
0.0680989
0.066848
0.065488
0.0640332
0.0624979
0.060895
0.0592366
0.0575439
0.0558346
0.0539717
0.0518324
0.0176225
0.0150447
0.0128595
0.0109153
0.00903767
0.00724136
0.00554503
0.00395525
0.00247929
0.00112577
-9.66362e-05
-0.00117959
-0.00211523
-0.00289636
-0.00351664
-0.00397065
-0.00425396
-0.00436317
-0.00429593
-0.0040509
-0.00362782
-0.00302742
-0.00225143
-0.00130254
-0.000184386
0.00109852
0.0025408
0.00413624
0.00587783
0.00775779
0.0097676
0.0118981
0.0141394
0.0164811
0.0189123
0.0214213
0.0239963
0.0266246
0.0292935
0.0319898
0.0347
0.0374105
0.0401075
0.042777
0.0454052
0.0479783
0.0504826
0.0529047
0.0552314
0.0574501
0.0595487
0.0615156
0.0633399
0.0650117
0.0665218
0.0678621
0.0690255
0.0700064
0.0708001
0.0714033
0.0718141
0.0720321
0.0720583
0.0718954
0.0715472
0.0710194
0.0703188
0.0694536
0.068433
0.0672674
0.0659681
0.0645466
0.0630151
0.0613853
0.0596679
0.0578723
0.056019
0.0541247
0.0520284
0.0495885
0.0196584
0.0167798
0.0143598
0.0122282
0.0101869
0.00824997
0.00643549
0.00474762
0.00319117
0.00177248
0.000498004
-0.000625976
-0.00159355
-0.00239931
-0.00303852
-0.00350721
-0.00380223
-0.00392128
-0.00386297
-0.00362678
-0.00321313
-0.00262331
-0.00185949
-0.000924692
0.000177215
0.00144156
0.00286289
0.00443498
0.00615085
0.00800283
0.00998254
0.012081
0.0142886
0.0165951
0.0189899
0.0214617
0.0239987
0.0265889
0.0292196
0.031878
0.034551
0.0372251
0.0398868
0.0425225
0.0451185
0.0476612
0.0501371
0.0525331
0.0548359
0.0570331
0.0591125
0.0610626
0.0628726
0.0645322
0.0660323
0.0673644
0.0685214
0.0694971
0.0702864
0.0708857
0.0712925
0.0715057
0.0715255
0.0713538
0.0709935
0.0704492
0.0697265
0.0688323
0.0677744
0.0665617
0.0652036
0.06371
0.0620912
0.060357
0.0585159
0.0565755
0.054556
0.0524737
0.0501453
0.0474111
0.0215667
0.0183951
0.0157433
0.0134238
0.0112161
0.00913401
0.00719547
0.00540263
0.00375826
0.00226674
0.000932616
-0.000239681
-0.00124598
-0.0020825
-0.002746
-0.00323383
-0.00354406
-0.00367544
-0.00362753
-0.00340062
-0.00299579
-0.00241492
-0.00166061
-0.000736268
0.000353979
0.00160527
0.00301201
0.00456794
0.00626606
0.00809876
0.0100578
0.0121342
0.0143187
0.0166012
0.0189712
0.0214177
0.0239293
0.026494
0.0290995
0.0317332
0.0343822
0.0370333
0.0396732
0.0422883
0.0448653
0.0473907
0.0498511
0.0522333
0.0545244
0.0567116
0.0587829
0.0607268
0.0625321
0.0641886
0.0656867
0.067018
0.0681747
0.0691504
0.0699395
0.0705379
0.0709424
0.0711514
0.0711643
0.0709819
0.0706065
0.0700414
0.0692913
0.0683618
0.0672594
0.0659917
0.0645665
0.0629923
0.0612777
0.0594311
0.0574593
0.0553683
0.0531786
0.0509067
0.0483479
0.0453259
0.0233226
0.019865
0.0169849
0.0144778
0.0121022
0.00987198
0.00780509
0.00590215
0.00416418
0.0025939
0.0011942
-3.21417e-05
-0.00108251
-0.0019546
-0.00264651
-0.00315686
-0.00348483
-0.00363021
-0.00359344
-0.00337561
-0.00297848
-0.00240447
-0.00165668
-0.000738879
0.000344501
0.00158837
0.00298698
0.00453395
0.00622229
0.00804435
0.00999194
0.0120563
0.0142281
0.0164975
0.0188542
0.0212873
0.0237856
0.0263373
0.0289304
0.0315523
0.0341904
0.0368317
0.0394629
0.0420707
0.0446418
0.0471627
0.0496202
0.0520011
0.0542923
0.0564812
0.0585555
0.0605035
0.0623141
0.0639766
0.0654813
0.0668192
0.0679823
0.0689637
0.0697574
0.0703584
0.0707633
0.0709694
0.0709757
0.0707819
0.0703894
0.0698006
0.0690191
0.0680494
0.066897
0.065568
0.0640691
0.0624075
0.0605904
0.0586251
0.056517
0.054271
0.0519083
0.0494459
0.0466587
0.0433543
0.024904
0.0211668
0.0180617
0.015368
0.0128239
0.0104435
0.00824532
0.00622854
0.00439275
0.00273923
0.00126944
-1.53173e-05
-0.00111381
-0.00202506
-0.00274841
-0.00328363
-0.00363097
-0.0037912
-0.0037656
-0.00355604
-0.00316493
-0.00259526
-0.0018506
-0.000935126
0.000146416
0.00138867
0.00278572
0.00433104
0.00601757
0.00783763
0.00978305
0.0118451
0.0140146
0.0162817
0.0186364
0.0210678
0.0235648
0.0261159
0.0287091
0.0313321
0.0339722
0.0366166
0.0392522
0.0418656
0.0444437
0.046973
0.0494402
0.0518321
0.0541355
0.0563376
0.0584262
0.0603891
0.0622149
0.0638929
0.0654128
0.0667653
0.067942
0.0689353
0.0697387
0.0703468
0.0707552
0.0709608
0.0709616
0.0707566
0.0703463
0.0697321
0.0689165
0.0679031
0.0666963
0.0653012
0.0637235
0.0619691
0.0600443
0.0579553
0.0557066
0.0533023
0.0507644
0.0481109
0.0450972
0.0415153
0.0262909
0.0222798
0.0189527
0.0160737
0.0133609
0.0108293
0.00849784
0.00636461
0.00442796
0.00268794
0.00114474
-0.000201606
-0.00135113
-0.00230403
-0.00306082
-0.00362233
-0.00398982
-0.00416497
-0.00414988
-0.00394716
-0.00355986
-0.00299153
-0.00224623
-0.00132854
-0.000243542
0.00100313
0.00240534
0.00395641
0.00564917
0.00747591
0.00942842
0.011498
0.0136754
0.0159511
0.0183149
0.0207562
0.0232639
0.0258265
0.0284323
0.0310689
0.0337238
0.0363843
0.0390371
0.0416692
0.0442672
0.0468177
0.0493072
0.0517224
0.0540501
0.0562772
0.0583912
0.0603799
0.0622314
0.0639345
0.0654787
0.0668542
0.068052
0.069064
0.0698831
0.0705033
0.0709194
0.0711275
0.0711249
0.0709099
0.070482
0.0698417
0.0689905
0.0679312
0.0666671
0.0652025
0.063542
0.0616906
0.059654
0.0574375
0.0550448
0.0524797
0.049765
0.0469199
0.043681
0.039825
0.0274654
0.0231847
0.0196386
0.0165754
0.0136943
0.0110109
0.00854493
0.00629351
0.00425393
0.00242516
0.000806277
-0.000603791
-0.00180621
-0.00280229
-0.00359358
-0.00418194
-0.00456956
-0.00475896
-0.00475305
-0.00455513
-0.00416888
-0.00359843
-0.00284831
-0.00192351
-0.000829486
0.000427857
0.00184214
0.00340652
0.00511367
0.00695582
0.0089247
0.0110116
0.0132073
0.0155023
0.0178863
0.0203489
0.0228791
0.0254654
0.0280961
0.0307589
0.0334414
0.0361308
0.0388139
0.0414775
0.0441082
0.0466926
0.0492171
0.0516682
0.0540323
0.0562964
0.0584475
0.060473
0.0623607
0.0640991
0.0656771
0.0670844
0.0683115
0.0693497
0.0701911
0.070829
0.0712576
0.0714722
0.0714693
0.0712464
0.0708021
0.0701361
0.069249
0.0681426
0.0668195
0.0652829
0.0635368
0.0615856
0.059434
0.057087
0.0545477
0.0518194
0.0489265
0.0458892
0.0424258
0.0382981
0.0284102
0.0238639
0.0201009
0.0168547
0.0138058
0.0109705
0.0083693
0.00599864
0.00385482
0.00193591
0.000239997
-0.00123501
-0.0024913
-0.00353119
-0.00435721
-0.00497216
-0.00537911
-0.0055814
-0.00558268
-0.00538693
-0.00499847
-0.00442195
-0.00366242
-0.00272527
-0.00161633
-0.000341806
0.00109168
0.00267708
0.00440693
0.00627333
0.00826794
0.010382
0.0126063
0.0149312
0.0173467
0.0198422
0.0224066
0.0250287
0.0276966
0.0303982
0.0331209
0.035852
0.0385782
0.0412863
0.0439628
0.046594
0.0491662
0.0516657
0.0540788
0.056392
0.0585919
0.0606657
0.0626007
0.0643849
0.0660067
0.0674552
0.0687203
0.0697925
0.0706635
0.0713256
0.0717724
0.0719984
0.0719992
0.0717715
0.071313
0.0706226
0.0697002
0.0685466
0.0671637
0.0655539
0.0637205
0.0616672
0.0593984
0.0569185
0.0542304
0.0513372
0.0482645
0.0450344
0.0413465
0.036948
0.0291095
0.0243001
0.0203221
0.016894
0.0136777
0.0106906
0.00795393
0.00546352
0.00321484
0.00120513
-0.000568396
-0.00210876
-0.00341908
-0.00450262
-0.00536283
-0.00600337
-0.00642815
-0.00664127
-0.00664713
-0.00645036
-0.00605587
-0.00546889
-0.00469492
-0.00373981
-0.00260974
-0.00131124
0.000148817
0.00176317
0.00352418
0.0054238
0.0074536
0.00960475
0.011868
0.0142337
0.0166917
0.0192315
0.021842
0.024512
0.0272295
0.0299823
0.0327581
0.0355437
0.038326
0.0410916
0.0438268
0.0465179
0.0491508
0.0517115
0.0541862
0.0565608
0.0588218
0.0609556
0.0629494
0.0647903
0.0664664
0.0679661
0.0692784
0.0703935
0.071302
0.0719957
0.0724672
0.0727102
0.0727196
0.072491
0.0720216
0.0713092
0.0703531
0.0691532
0.0677106
0.0660272
0.0641055
0.061949
0.0595613
0.0569468
0.054108
0.051048
0.0477942
0.0443699
0.0404567
0.0357871
0.0295477
0.0244771
0.0202852
0.0166759
0.0132928
0.0101541
0.00728202
0.00467179
0.00231814
0.000217588
-0.00163347
-0.0032389
-0.0046027
-0.00572902
-0.00662214
-0.00728657
-0.00772698
-0.00794826
-0.00795547
-0.00775391
-0.00734909
-0.00674675
-0.00595291
-0.00497384
-0.00381609
-0.00248651
-0.000992256
0.000659195
0.00246001
0.00440199
0.00647658
0.00867485
0.0109875
0.0134048
0.0159165
0.0185121
0.0211806
0.0239105
0.02669
0.0295067
0.0323482
0.0352013
0.0380528
0.0408891
0.0436962
0.0464602
0.049167
0.051802
0.0543511
0.0568
0.0591345
0.0613407
0.063405
0.0653143
0.0670557
0.068617
0.0699868
0.0711541
0.0721089
0.0728422
0.0733457
0.0736124
0.073636
0.0734117
0.0729354
0.0722045
0.0712172
0.0699727
0.0684716
0.0667149
0.0647049
0.0624443
0.0599367
0.0571862
0.0541952
0.0509668
0.0475301
0.04391
0.03977
0.0348278
0.0297095
0.0243786
0.0199736
0.0161836
0.012634
0.009344
0.00633677
0.00360701
0.00114874
-0.00104217
-0.00297009
-0.00463969
-0.00605577
-0.00722331
-0.00814741
-0.00883335
-0.00928658
-0.00951269
-0.00951745
-0.00930679
-0.0088868
-0.00826377
-0.00744418
-0.00643475
-0.00524241
-0.00387434
-0.00233797
-0.000641025
0.00120845
0.00320211
0.00533123
0.00758679
0.00995936
0.0124391
0.0150159
0.017679
0.0204173
0.0232194
0.0260732
0.0289665
0.0318866
0.0348203
0.0377541
0.0406743
0.0435667
0.0464171
0.049211
0.0519337
0.0545705
0.0571067
0.0595277
0.0618189
0.0639663
0.0659559
0.0677743
0.0694086
0.0708464
0.0720761
0.0730869
0.0738687
0.0744125
0.0747102
0.0747549
0.0745407
0.0740628
0.0733175
0.0723025
0.0710162
0.0694584
0.0676298
0.0655319
0.0631673
0.0605392
0.0576516
0.0545069
0.0511084
0.0474868
0.0436689
0.0392997
0.0340819
0.0295797
0.0239886
0.0193706
0.0154001
0.0116843
0.00824333
0.00510138
0.00225263
-0.000309525
-0.00258989
-0.0045935
-0.00632579
-0.00779236
-0.00899894
-0.00995144
-0.0106559
-0.0111185
-0.0113455
-0.0113435
-0.0111188
-0.0106783
-0.0100288
-0.00917715
-0.00813056
-0.00689634
-0.00548202
-0.00389532
-0.00214423
-0.000236986
0.00181786
0.00401145
0.0063346
0.0087778
0.0113311
0.0139843
0.0167265
0.0195467
0.0224332
0.0253739
0.0283566
0.0313683
0.0343957
0.0374251
0.0404427
0.0434339
0.0463844
0.0492791
0.0521031
0.0548412
0.0574783
0.0599991
0.0623886
0.064632
0.0667146
0.0686224
0.0703415
0.0718589
0.073162
0.0742391
0.0750792
0.0756724
0.0760097
0.0760831
0.0758859
0.0754124
0.0746581
0.0736197
0.0722951
0.0706835
0.0687848
0.0666003
0.0641321
0.0613833
0.0583579
0.0550583
0.0514879
0.0476792
0.0436608
0.0390592
0.0335618
0.0291429
0.0232909
0.0184596
0.0143085
0.0104266
0.00683495
0.00355881
0.000591853
-0.00207316
-0.00444164
-0.00651931
-0.00831231
-0.00982699
-0.0110699
-0.0120476
-0.012767
-0.0132349
-0.0134584
-0.0134445
-0.0132006
-0.0127337
-0.0120513
-0.0111608
-0.0100698
-0.00878609
-0.00731742
-0.00567186
-0.00385767
-0.00188331
0.000242471
0.00251065
0.00491189
0.00743656
0.0100746
0.0128157
0.0156489
0.018563
0.0215462
0.0245866
0.0276715
0.0307879
0.0339223
0.037061
0.0401896
0.0432935
0.0463578
0.0493674
0.0523067
0.0551602
0.057912
0.0605465
0.0630481
0.065401
0.0675901
0.0696003
0.071417
0.0730262
0.0744145
0.0755692
0.0764784
0.0771311
0.0775172
0.077628
0.0774557
0.0769936
0.0762365
0.0751801
0.0738218
0.0721598
0.0701938
0.0679245
0.0653537
0.0624845
0.0593207
0.0558649
0.0521207
0.0481224
0.0439004
0.0390623
0.0332799
0.0283835
0.0222692
0.0172237
0.0128916
0.00884356
0.00510148
0.00169176
-0.00139246
-0.00415903
-0.00661394
-0.00876359
-0.0106148
-0.0121747
-0.0134506
-0.0144498
-0.0151799
-0.0156485
-0.0158634
-0.0158323
-0.015563
-0.0150634
-0.0143413
-0.0134048
-0.0122617
-0.0109204
-0.00938889
-0.0076756
-0.00578906
-0.00373796
-0.00153125
0.000821852
0.00331187
0.00592902
0.00866316
0.0115038
0.0144399
0.0174601
0.0205527
0.0237054
0.0269056
0.03014
0.033395
0.0366565
0.0399101
0.0431407
0.0463332
0.0494719
0.0525409
0.0555241
0.0584053
0.061168
0.0637958
0.0662726
0.0685821
0.0707085
0.0726363
0.0743505
0.0758368
0.0770813
0.0780712
0.0787944
0.0792399
0.0793978
0.0792592
0.0788166
0.0780638
0.0769958
0.0756089
0.073901
0.0718711
0.0695195
0.0668477
0.0638587
0.0605562
0.056943
0.0530228
0.0488321
0.0444029
0.0393235
0.0332496
0.0272854
0.0209066
0.0156456
0.0111319
0.00691741
0.00302513
-0.000517518
-0.00371789
-0.00658444
-0.00912376
-0.0113429
-0.0132494
-0.0148511
-0.0161561
-0.0171724
-0.0179085
-0.0183726
-0.0185732
-0.0185188
-0.0182177
-0.0176784
-0.0169094
-0.015919
-0.0147159
-0.0133084
-0.0117052
-0.009915
-0.00794652
-0.00580876
-0.00351089
-0.00106228
0.00152741
0.00424824
0.00708995
0.0100419
0.013093
0.0162318
0.0194464
0.0227244
0.026053
0.0294189
0.0328082
0.0362065
0.0395992
0.0429709
0.046306
0.0495885
0.0528021
0.05593
0.0589554
0.0618612
0.0646304
0.0672459
0.0696906
0.0719478
0.0740011
0.0758344
0.0774322
0.0787798
0.0798631
0.080669
0.0811853
0.0814009
0.081306
0.0808921
0.0801518
0.0790793
0.0776703
0.0759217
0.073832
0.0714012
0.0686304
0.0655225
0.0620813
0.0583095
0.0542112
0.0498248
0.0451843
0.0398579
0.0334849
0.025832
0.0191859
0.0137076
0.00901124
0.00462993
0.0005876
-0.00308727
-0.00640251
-0.00936722
-0.0119886
-0.0142743
-0.0162327
-0.0178723
-0.019202
-0.0202306
-0.0209673
-0.0214211
-0.0216013
-0.0215168
-0.0211769
-0.0205904
-0.0197666
-0.0187142
-0.0174423
-0.0159598
-0.0142757
-0.0123989
-0.0103386
-0.00810391
-0.00570433
-0.00314939
-0.00044892
0.00238701
0.00534799
0.00842326
0.0116017
0.0148716
0.018221
0.0216374
0.0251078
0.0286188
0.0321562
0.0357056
0.0392517
0.0427791
0.0462718
0.0497132
0.0530865
0.0563745
0.0595597
0.0626243
0.0655505
0.0683202
0.0709157
0.0733191
0.0755131
0.0774804
0.0792046
0.0806695
0.08186
0.0827618
0.0833614
0.0836467
0.0836066
0.0832315
0.082513
0.0814443
0.0800202
0.078237
0.0760925
0.0735862
0.0707191
0.0674936
0.0639138
0.0599823
0.0557036
0.0511181
0.0462617
0.0406818
0.0340011
0.024006
0.0170892
0.0113913
0.00651103
0.0019623
-0.00223001
-0.00603633
-0.00946503
-0.0125258
-0.0152266
-0.0175756
-0.019582
-0.0212551
-0.0226045
-0.02364
-0.0243714
-0.0248085
-0.0249613
-0.0248396
-0.0244531
-0.0238115
-0.0229243
-0.0218012
-0.0204514
-0.0188845
-0.0171097
-0.0151364
-0.0129739
-0.0106318
-0.00811973
-0.00544737
-0.00262475
0.00033789
0.00343003
0.00664079
0.00995889
0.0133726
0.0168699
0.0204379
0.0240638
0.0277336
0.0314334
0.0351481
0.0388625
0.0425605
0.0462259
0.0498417
0.0533905
0.0568545
0.0602155
0.0634551
0.0665545
0.069495
0.0722576
0.0748236
0.0771744
0.0792918
0.0811579
0.0827556
0.0840682
0.0850802
0.085777
0.086145
0.0861719
0.0858469
0.0851606
0.084105
0.0826741
0.0808632
0.0786697
0.0760925
0.073132
0.0697907
0.0660726
0.0619805
0.057519
0.0527305
0.0476531
0.0418127
0.0348144
0.0217893
0.0145977
0.00867759
0.00361187
-0.00110505
-0.0054473
-0.00938425
-0.0129248
-0.0160794
-0.0188565
-0.0212652
-0.0233153
-0.0250169
-0.0263806
-0.0274168
-0.0281363
-0.0285497
-0.0286676
-0.0285007
-0.0280593
-0.0273539
-0.0263945
-0.0251912
-0.0237541
-0.0220928
-0.0202171
-0.0181368
-0.0158616
-0.0134012
-0.0107654
-0.00796424
-0.00500787
-0.00190666
0.00132873
0.00468733
0.00815775
0.0117282
0.0153864
0.0191196
0.0229145
0.0267573
0.0306336
0.0345284
0.0384259
0.04231
0.0461637
0.0499697
0.0537101
0.0573665
0.06092
0.0643514
0.0676412
0.0707695
0.0737165
0.0764623
0.0789872
0.0812717
0.0832967
0.0850435
0.0864944
0.0876323
0.0884412
0.0889062
0.0890136
0.0887514
0.0881087
0.0870768
0.0856483
0.0838178
0.0815819
0.0789388
0.0758887
0.0724339
0.0685783
0.0643246
0.0596777
0.0546823
0.0493784
0.0432695
0.0359428
0.019163
0.011692
0.00554651
0.000293511
-0.00459251
-0.00908471
-0.0131514
-0.0168021
-0.0200479
-0.022898
-0.0253622
-0.0274511
-0.0291759
-0.0305476
-0.0315779
-0.0322782
-0.0326601
-0.032735
-0.0325143
-0.0320091
-0.0312305
-0.0301892
-0.0288959
-0.0273611
-0.0255951
-0.0236079
-0.0214098
-0.0190107
-0.0164207
-0.0136498
-0.0107081
-0.00760613
-0.00435426
-0.0009633
0.00255567
0.00619119
0.00993137
0.0137638
0.0176758
0.0216537
0.0256837
0.0297512
0.0338408
0.0379367
0.0420222
0.0460802
0.0500927
0.0540414
0.0579071
0.0616704
0.0653112
0.0688091
0.0721432
0.0752928
0.0782366
0.0809538
0.0834235
0.0856253
0.0875391
0.0891457
0.0904265
0.0913638
0.0919415
0.0921443
0.0919587
0.0913726
0.0903759
0.0889602
0.0871191
0.0848484
0.0821455
0.0790103
0.0754446
0.0714524
0.0670364
0.0622016
0.0569949
0.0514585
0.0450726
0.0374056
0.0161073
0.00835154
0.00197714
-0.00346522
-0.00852141
-0.0131636
-0.0173592
-0.0211181
-0.0244522
-0.0273715
-0.0298867
-0.0320091
-0.0337507
-0.0351238
-0.0361408
-0.036814
-0.0371559
-0.0371789
-0.036895
-0.0363163
-0.0354544
-0.0343209
-0.0329271
-0.0312838
-0.029402
-0.0272922
-0.0249649
-0.0224304
-0.0196991
-0.0167812
-0.0136871
-0.0104273
-0.00701245
-0.0034534
0.000238677
0.00405225
0.00797537
0.0119956
0.0161
0.020275
0.0245066
0.0287799
0.0330795
0.0373892
0.0416922
0.0459707
0.0502064
0.0543804
0.058473
0.0624639
0.0663323
0.0700568
0.0736156
0.0769867
0.0801477
0.0830765
0.0857508
0.0881487
0.0902486
0.0920295
0.0934715
0.0945551
0.0952626
0.095577
0.0954834
0.0949681
0.0940197
0.0926285
0.090787
0.08849
0.0857343
0.082519
0.0788458
0.0747184
0.0701394
0.0651142
0.0596918
0.0539164
0.0472442
0.039224
0.0126011
0.00455473
-0.00205253
-0.00768659
-0.0129142
-0.0177065
-0.0220298
-0.0258948
-0.0293142
-0.0322985
-0.0348595
-0.0370094
-0.0387612
-0.0401282
-0.0411236
-0.0417609
-0.0420536
-0.0420149
-0.0416577
-0.0409949
-0.040039
-0.0388023
-0.0372965
-0.0355333
-0.0335241
-0.0312799
-0.0288115
-0.0261297
-0.023245
-0.020168
-0.0169091
-0.0134791
-0.00988865
-0.00614876
-0.00227065
0.00173411
0.00585352
0.0100751
0.0143858
0.0187721
0.0232198
0.0277139
0.0322388
0.0367781
0.0413146
0.0458302
0.0503063
0.0547231
0.0590606
0.0632975
0.0674124
0.0713828
0.075186
0.0787986
0.0821972
0.085358
0.0882574
0.0908719
0.0931782
0.0951538
0.0967767
0.098026
0.0988819
0.0993258
0.099341
0.0989123
0.0980267
0.096673
0.0948426
0.092529
0.0897283
0.086439
0.0826622
0.0784013
0.0736592
0.0684409
0.0627981
0.056777
0.0498086
0.0414212
0.00862243
0.000278828
-0.0065657
-0.0123941
-0.0177945
-0.0227371
-0.027187
-0.0311557
-0.0346566
-0.0377014
-0.0403024
-0.0424732
-0.0442277
-0.0455802
-0.0465451
-0.0471369
-0.0473702
-0.0472591
-0.0468176
-0.0460594
-0.0449978
-0.0436459
-0.0420162
-0.040121
-0.0379721
-0.0355811
-0.0329592
-0.0301176
-0.0270669
-0.0238181
-0.0203818
-0.0167688
-0.01299
-0.00905629
-0.00497904
-0.000769813
0.00355938
0.00799604
0.0125271
0.0171391
0.0218175
0.0265474
0.0313131
0.0360979
0.0408844
0.045654
0.0503878
0.0550655
0.0596663
0.0641685
0.0685494
0.0727858
0.0768538
0.080729
0.0843864
0.0878009
0.0909472
0.0938002
0.0963349
0.0985267
0.100352
0.101788
0.102812
0.103405
0.103548
0.103223
0.102416
0.101115
0.0993082
0.0969892
0.0941525
0.0907961
0.0869203
0.0825285
0.0776231
0.0722094
0.0663414
0.0600675
0.0527921
0.0440226
0.00414787
-0.00450024
-0.0115869
-0.0176126
-0.0231873
-0.0282802
-0.0328554
-0.0369251
-0.0405037
-0.0436037
-0.0462385
-0.0484227
-0.0501715
-0.0515003
-0.0524247
-0.0529605
-0.0531231
-0.052928
-0.0523901
-0.0515242
-0.0503444
-0.0488646
-0.0470981
-0.0450578
-0.0427562
-0.0402054
-0.037417
-0.0344025
-0.031173
-0.0277394
-0.0241126
-0.0203035
-0.0163232
-0.0121825
-0.00789281
-0.0034657
0.00108688
0.00575247
0.0105181
0.01537
0.020294
0.0252749
0.030297
0.0353434
0.0403964
0.0454374
0.0504466
0.0554036
0.0602868
0.0650738
0.069741
0.0742643
0.0786186
0.0827783
0.0867169
0.0904079
0.0938243
0.0969391
0.0997255
0.102157
0.104208
0.105853
0.107068
0.107832
0.108122
0.10792
0.10721
0.105977
0.104208
0.101896
0.0990338
0.0956181
0.091649
0.0871293
0.082061
0.0764496
0.0703514
0.0638172
0.0562236
0.047056
-0.000847322
-0.00980799
-0.0171423
-0.0233685
-0.0291191
-0.0343625
-0.0390615
-0.0432291
-0.0468809
-0.0500302
-0.0526917
-0.0548811
-0.0566149
-0.0579097
-0.0587827
-0.0592506
-0.0593303
-0.0590384
-0.0583911
-0.057404
-0.0560924
-0.0544709
-0.0525538
-0.0503547
-0.0478866
-0.0451622
-0.0421936
-0.0389926
-0.0355706
-0.0319388
-0.0281081
-0.0240896
-0.0198943
-0.0155333
-0.0110177
-0.00635919
-0.00156952
0.00333891
0.00835314
0.0134596
0.018644
0.0238912
0.0291854
0.0345096
0.0398461
0.0451757
0.0504785
0.0557335
0.0609186
0.0660105
0.070985
0.0758169
0.0804798
0.0849469
0.0891904
0.0931819
0.0968928
0.100294
0.103357
0.106054
0.108355
0.110234
0.111664
0.112621
0.113081
0.113024
0.11243
0.111283
0.109569
0.107277
0.104401
0.100935
0.0968794
0.0922355
0.0870052
0.0811941
0.0748607
0.0680583
0.0601346
0.0505517
-0.00638939
-0.0156715
-0.0232594
-0.0296896
-0.035618
-0.0410119
-0.045833
-0.0500952
-0.053815