/*--------------------------------*- C++ -*----------------------------------*\
  =========                 |
  \\      /  F ield         | OpenFOAM: The Open Source CFD Toolbox
   \\    /   O peration     | Website:  https://openfoam.org
    \\  /    A nd           | Version:  7
     \\/     M anipulation  |
\*---------------------------------------------------------------------------*/
FoamFile
{
    version     2.0;
    format      ascii;
    class       surfaceScalarField;
    location    "0.275";
    object      phi;
}
// * * * * * * * * * * * * * * * * * * * * * * * * * * * * * * * * * * * * * //

dimensions      [0 3 -1 0 0 0 0];

internalField   nonuniform List<scalar> 
12640
(
1.8966e-10
-1.91362e-10
5.55836e-10
-3.66129e-10
8.82956e-10
-3.27104e-10
1.04576e-09
-1.62827e-10
9.82196e-10
6.35731e-11
6.65226e-10
3.1701e-10
8.7942e-11
5.77292e-10
-7.44588e-10
8.32496e-10
-1.82016e-09
1.07554e-09
-3.12229e-09
1.30213e-09
-4.63198e-09
1.50971e-09
-6.32877e-09
1.6968e-09
-8.19144e-09
1.86266e-09
-1.01985e-08
2.00701e-09
-1.23283e-08
2.12985e-09
-1.45597e-08
2.23142e-09
-1.68718e-08
2.31213e-09
-1.92443e-08
2.3725e-09
-2.16575e-08
2.41315e-09
-2.40923e-08
2.43477e-09
-2.65304e-08
2.43808e-09
-2.89542e-08
2.42383e-09
-3.1347e-08
2.39281e-09
-3.36928e-08
2.34583e-09
-3.59766e-08
2.28371e-09
-3.81838e-08
2.20726e-09
-4.03011e-08
2.11732e-09
-4.23159e-08
2.01473e-09
-4.42162e-08
1.90032e-09
-4.59911e-08
1.77494e-09
-4.76306e-08
1.63944e-09
-4.91252e-08
1.49467e-09
-5.04667e-08
1.3415e-09
-5.16475e-08
1.18079e-09
-5.26609e-08
1.01341e-09
-5.35012e-08
8.40267e-10
-5.41635e-08
6.6225e-10
-5.46438e-08
4.8028e-10
-5.4939e-08
2.95284e-10
-5.50472e-08
1.08209e-10
-5.49673e-08
-7.99832e-11
-5.4699e-08
-2.68308e-10
-5.42432e-08
-4.55763e-10
-5.36019e-08
-6.4133e-10
-5.27779e-08
-8.23974e-10
-5.17753e-08
-1.00264e-09
-5.0599e-08
-1.17628e-09
-4.92552e-08
-1.34379e-09
-4.77511e-08
-1.50411e-09
-4.6095e-08
-1.65612e-09
-4.42962e-08
-1.79875e-09
-4.23653e-08
-1.93089e-09
-4.03138e-08
-2.05147e-09
-3.81544e-08
-2.15943e-09
-3.59007e-08
-2.25371e-09
-3.35674e-08
-2.33328e-09
-3.11702e-08
-2.39717e-09
-2.87258e-08
-2.44442e-09
-2.62516e-08
-2.47414e-09
-2.37661e-08
-2.4855e-09
-2.12884e-08
-2.47771e-09
-1.88383e-08
-2.45009e-09
-1.64363e-08
-2.40202e-09
-1.41033e-08
-2.33302e-09
-1.18606e-08
-2.24272e-09
-9.72971e-09
-2.13087e-09
-7.73234e-09
-1.99739e-09
-5.88991e-09
-1.84242e-09
-4.22349e-09
-1.66639e-09
-2.75336e-09
-1.4701e-09
-1.49856e-09
-1.25482e-09
-4.76111e-10
-1.02249e-09
3.00013e-10
-7.76145e-10
8.20603e-10
-5.2056e-10
1.08401e-09
-2.63362e-10
1.10095e-09
-1.69326e-11
9.02492e-10
1.98409e-10
5.54403e-10
3.47996e-10
1.8391e-10
3.70421e-10
1.83912e-10
3.65656e-10
-5.56974e-10
8.86364e-10
-8.86656e-10
1.2171e-09
-6.57744e-10
1.13484e-09
-8.06971e-11
5.02086e-10
6.96136e-10
-7.54848e-10
1.57391e-09
-2.66514e-09
2.48769e-09
-5.22779e-09
3.39525e-09
-8.42141e-09
4.26916e-09
-1.22109e-08
5.09159e-09
-1.65522e-08
5.85097e-09
-2.13954e-08
6.53993e-09
-2.66867e-08
7.15402e-09
-3.23705e-08
7.69084e-09
-3.83901e-08
8.14944e-09
-4.46886e-08
8.52992e-09
-5.12096e-08
8.83316e-09
-5.78977e-08
9.06057e-09
-6.46986e-08
9.21406e-09
-7.15597e-08
9.29584e-09
-7.843e-08
9.3084e-09
-8.52606e-08
9.25438e-09
-9.20044e-08
9.13658e-09
-9.86165e-08
8.95794e-09
-1.05054e-07
8.72143e-09
-1.11277e-07
8.43012e-09
-1.17247e-07
8.08714e-09
-1.22928e-07
7.69564e-09
-1.28286e-07
7.25881e-09
-1.33291e-07
6.77985e-09
-1.37914e-07
6.26204e-09
-1.42128e-07
5.70864e-09
-1.45909e-07
5.12296e-09
-1.49237e-07
4.50837e-09
-1.52092e-07
3.86825e-09
-1.54457e-07
3.20603e-09
-1.5632e-07
2.5252e-09
-1.57669e-07
1.8293e-09
-1.58496e-07
1.12193e-09
-1.58795e-07
4.0674e-10
-1.58562e-07
-3.12543e-10
-1.57798e-07
-1.03213e-09
-1.56506e-07
-1.74818e-09
-1.5469e-07
-2.45677e-09
-1.5236e-07
-3.15393e-09
-1.49527e-07
-3.83563e-09
-1.46206e-07
-4.4978e-09
-1.42413e-07
-5.13633e-09
-1.3817e-07
-5.74709e-09
-1.33501e-07
-6.32592e-09
-1.28431e-07
-6.86869e-09
-1.2299e-07
-7.37127e-09
-1.17212e-07
-7.82959e-09
-1.11132e-07
-8.23963e-09
-1.04788e-07
-8.59748e-09
-9.82221e-08
-8.89933e-09
-9.14777e-08
-9.14152e-09
-8.46016e-08
-9.32056e-09
-7.76425e-08
-9.43319e-09
-7.06516e-08
-9.47639e-09
-6.36819e-08
-9.44741e-09
-5.67881e-08
-9.34386e-09
-5.00264e-08
-9.16372e-09
-4.3454e-08
-8.90544e-09
-3.71287e-08
-8.56798e-09
-3.11086e-08
-8.15095e-09
-2.54513e-08
-7.65471e-09
-2.02132e-08
-7.08052e-09
-1.54488e-08
-6.43087e-09
-1.12091e-08
-5.70983e-09
-7.54029e-09
-4.92356e-09
-4.48157e-09
-4.08115e-09
-2.06185e-09
-3.19586e-09
-2.95366e-10
-2.2871e-09
8.24849e-10
-1.38367e-09
1.33646e-09
-5.28583e-10
1.32148e-09
2.13426e-10
9.2422e-10
7.45396e-10
3.70593e-10
9.24257e-10
5.54466e-10
3.30113e-10
-8.87071e-10
6.65947e-10
-1.2225e-09
6.12828e-10
-6.04577e-10
-9.02408e-11
6.2237e-10
-1.61405e-09
2.21988e-09
-4.05773e-09
4.01753e-09
-7.46564e-09
5.89561e-09
-1.18418e-08
7.77144e-09
-1.71608e-08
9.58823e-09
-2.33763e-08
1.13071e-08
-3.04271e-08
1.29016e-08
-3.82414e-08
1.43542e-08
-4.67408e-08
1.56534e-08
-5.58424e-08
1.67925e-08
-6.54608e-08
1.77679e-08
-7.55095e-08
1.85786e-08
-8.5902e-08
1.92256e-08
-9.65525e-08
1.97111e-08
-1.07377e-07
2.00386e-08
-1.18293e-07
2.02121e-08
-1.29222e-07
2.02366e-08
-1.40085e-07
2.01175e-08
-1.50809e-07
1.98605e-08
-1.61323e-07
1.94718e-08
-1.71559e-07
1.89575e-08
-1.81453e-07
1.83243e-08
-1.90944e-07
1.75787e-08
-1.99976e-07
1.67275e-08
-2.08495e-07
1.57777e-08
-2.16451e-07
1.47361e-08
-2.23799e-07
1.36099e-08
-2.30497e-07
1.24062e-08
-2.36506e-07
1.11322e-08
-2.41793e-07
9.79525e-09
-2.46327e-07
8.40273e-09
-2.50084e-07
6.96218e-09
-2.5304e-07
5.48123e-09
-2.55178e-07
3.96762e-09
-2.56485e-07
2.42922e-09
-2.56953e-07
8.74043e-10
-2.56575e-07
-6.8978e-10
-2.55353e-07
-2.25398e-09
-2.53292e-07
-3.81015e-09
-2.50399e-07
-5.34976e-09
-2.46688e-07
-6.86415e-09
-2.42179e-07
-8.34459e-09
-2.36895e-07
-9.78221e-09
-2.30863e-07
-1.11681e-08
-2.24117e-07
-1.24933e-08
-2.16694e-07
-1.37489e-08
-2.08637e-07
-1.4926e-08
-1.99992e-07
-1.60156e-08
-1.90813e-07
-1.70089e-08
-1.81155e-07
-1.78975e-08
-1.7108e-07
-1.8673e-08
-1.60652e-07
-1.93271e-08
-1.49941e-07
-1.98522e-08
-1.39021e-07
-2.02409e-08
-1.27967e-07
-2.04864e-08
-1.16861e-07
-2.05825e-08
-1.05785e-07
-2.05234e-08
-9.48248e-08
-2.03044e-08
-8.4067e-08
-1.99215e-08
-7.36004e-08
-1.9372e-08
-6.35141e-08
-1.86543e-08
-5.3897e-08
-1.77681e-08
-4.48364e-08
-1.67152e-08
-3.64174e-08
-1.54995e-08
-2.87209e-08
-1.41274e-08
-2.18216e-08
-1.26092e-08
-1.57856e-08
-1.09596e-08
-1.0667e-08
-9.1997e-09
-6.50352e-09
-7.35926e-09
-3.31047e-09
-5.48013e-09
-1.07279e-09
-3.6214e-09
2.65424e-10
-1.86688e-09
8.14339e-10
-3.35572e-10
7.53948e-10
8.05758e-10
3.50891e-10
1.3274e-09
9.05303e-10
1.71747e-10
-1.05879e-09
1.04317e-10
-1.15527e-09
-5.88692e-10
8.83391e-11
-2.17112e-09
2.20485e-09
-4.82008e-09
4.86891e-09
-8.64189e-09
7.83936e-09
-1.36859e-08
1.09396e-08
-1.9957e-08
1.40425e-08
-2.74259e-08
1.70571e-08
-3.60373e-08
1.99185e-08
-4.5717e-08
2.25813e-08
-5.63767e-08
2.50139e-08
-6.79183e-08
2.7195e-08
-8.02369e-08
2.91111e-08
-9.32236e-08
3.07545e-08
-1.06767e-07
3.21221e-08
-1.20755e-07
3.32138e-08
-1.35076e-07
3.40325e-08
-1.49621e-07
3.45829e-08
-1.6428e-07
3.48715e-08
-1.7895e-07
3.49059e-08
-1.93527e-07
3.46947e-08
-2.07914e-07
3.42474e-08
-2.22016e-07
3.35741e-08
-2.35744e-07
3.26852e-08
-2.49011e-07
3.15917e-08
-2.61737e-07
3.03048e-08
-2.73846e-07
2.88361e-08
-2.85265e-07
2.71974e-08
-2.9593e-07
2.54006e-08
-3.05778e-07
2.34578e-08
-3.14753e-07
2.13813e-08
-3.22804e-07
1.91836e-08
-3.29886e-07
1.68774e-08
-3.35959e-07
1.44755e-08
-3.40988e-07
1.19908e-08
-3.44943e-07
9.43666e-09
-3.47802e-07
6.82642e-09
-3.49547e-07
4.17373e-09
-3.50165e-07
1.49244e-09
-3.49651e-07
-1.20339e-09
-3.48006e-07
-3.89945e-09
-3.45235e-07
-6.58124e-09
-3.4135e-07
-9.23403e-09
-3.36372e-07
-1.18429e-08
-3.30324e-07
-1.43928e-08
-3.23237e-07
-1.68685e-08
-3.15151e-07
-1.92547e-08
-3.06108e-07
-2.1536e-08
-2.9616e-07
-2.36971e-08
-2.85363e-07
-2.57228e-08
-2.73781e-07
-2.75978e-08
-2.61482e-07
-2.93072e-08
-2.48544e-07
-3.08365e-08
-2.35045e-07
-3.21714e-08
-2.21074e-07
-3.32981e-08
-2.06722e-07
-3.42038e-08
-1.92087e-07
-3.4876e-08
-1.77271e-07
-3.53033e-08
-1.62378e-07
-3.54755e-08
-1.47518e-07
-3.53832e-08
-1.32803e-07
-3.5019e-08
-1.18348e-07
-3.43767e-08
-1.04268e-07
-3.34522e-08
-9.06785e-08
-3.22436e-08
-7.76949e-08
-3.07517e-08
-6.54295e-08
-2.89806e-08
-5.39907e-08
-2.69383e-08
-4.34808e-08
-2.46373e-08
-3.39933e-08
-2.20967e-08
-2.56098e-08
-1.93431e-08
-1.83958e-08
-1.64136e-08
-1.23961e-08
-1.3359e-08
-7.62762e-09
-1.02485e-08
-4.07238e-09
-7.17659e-09
-1.66716e-09
-4.27208e-09
-2.9223e-10
-1.71054e-09
2.41528e-10
2.71945e-10
2.0773e-10
1.3612e-09
1.11299e-09
-4.7486e-11
-1.01126e-09
-6.5461e-10
-5.48268e-10
-2.15892e-09
1.59252e-09
-4.80066e-09
4.84659e-09
-8.74394e-09
8.81227e-09
-1.40881e-08
1.31836e-08
-2.08781e-08
1.77296e-08
-2.91141e-08
2.22784e-08
-3.87605e-08
2.67034e-08
-4.97534e-08
3.09115e-08
-6.20073e-08
3.48352e-08
-7.54199e-08
3.84265e-08
-8.98767e-08
4.16518e-08
-1.05255e-07
4.44892e-08
-1.21426e-07
4.69252e-08
-1.38257e-07
4.8953e-08
-1.55614e-07
5.05713e-08
-1.73364e-07
5.17827e-08
-1.91374e-07
5.25931e-08
-2.09514e-07
5.30112e-08
-2.27656e-07
5.30476e-08
-2.45676e-07
5.27145e-08
-2.63454e-07
5.20256e-08
-2.80875e-07
5.09954e-08
-2.9783e-07
4.96396e-08
-3.14212e-07
4.79743e-08
-3.29924e-07
4.60163e-08
-3.44871e-07
4.37829e-08
-3.58965e-07
4.12918e-08
-3.72125e-07
3.85609e-08
-3.84276e-07
3.56086e-08
-3.95348e-07
3.24536e-08
-4.0528e-07
2.91148e-08
-4.14014e-07
2.56114e-08
-4.21501e-07
2.19629e-08
-4.27699e-07
1.81891e-08
-4.32573e-07
1.43101e-08
-4.36093e-07
1.03463e-08
-4.38238e-07
6.31848e-09
-4.38993e-07
2.24768e-09
-4.38351e-07
-1.84469e-09
-4.36314e-07
-5.93689e-09
-4.32888e-07
-1.00069e-08
-4.2809e-07
-1.40323e-08
-4.21942e-07
-1.79906e-08
-4.14476e-07
-2.1859e-08
-4.0573e-07
-2.56143e-08
-3.95752e-07
-2.92334e-08
-3.84594e-07
-3.26933e-08
-3.72321e-07
-3.59706e-08
-3.59001e-07
-3.90425e-08
-3.44713e-07
-4.18862e-08
-3.29541e-07
-4.44792e-08
-3.13578e-07
-4.67996e-08
-2.96923e-07
-4.88263e-08
-2.79682e-07
-5.05388e-08
-2.61968e-07
-5.19178e-08
-2.43899e-07
-5.2945e-08
-2.25598e-07
-5.36038e-08
-2.07195e-07
-5.38789e-08
-1.88821e-07
-5.37573e-08
-1.70612e-07
-5.32281e-08
-1.52705e-07
-5.2283e-08
-1.35241e-07
-5.09168e-08
-1.18356e-07
-4.91278e-08
-1.0219e-07
-4.69184e-08
-8.68742e-08
-4.42962e-08
-7.2538e-08
-4.12744e-08
-5.93013e-08
-3.7874e-08
-4.72733e-08
-3.41247e-08
-3.65488e-08
-3.00677e-08
-2.72035e-08
-2.57589e-08
-1.92894e-08
-2.12731e-08
-1.28284e-08
-1.67095e-08
-7.80514e-09
-1.21999e-08
-4.15888e-09
-7.91833e-09
-1.77438e-09
-4.09503e-09
-4.72309e-10
-1.03019e-09
1.9931e-12
8.86867e-10
1.11497e-09
-2.94351e-10
-7.16914e-10
-1.51845e-09
6.75885e-10
-3.94089e-09
4.01496e-09
-7.76066e-09
8.66633e-09
-1.31149e-08
1.41665e-08
-2.00849e-08
2.01536e-08
-2.87029e-08
2.63475e-08
-3.89589e-08
3.25344e-08
-5.08077e-08
3.85523e-08
-6.41755e-08
4.42793e-08
-7.89651e-08
4.96249e-08
-9.50617e-08
5.4523e-08
-1.12336e-07
5.89266e-08
-1.30651e-07
6.28034e-08
-1.49858e-07
6.6133e-08
-1.6981e-07
6.89042e-08
-1.90352e-07
7.11133e-08
-2.11331e-07
7.27623e-08
-2.32596e-07
7.38581e-08
-2.53996e-07
7.44113e-08
-2.75384e-07
7.44355e-08
-2.96617e-07
7.39469e-08
-3.17555e-07
7.29637e-08
-3.38065e-07
7.15056e-08
-3.58019e-07
6.95937e-08
-3.77295e-07
6.72502e-08
-3.95777e-07
6.44982e-08
-4.13355e-07
6.13616e-08
-4.29929e-07
5.78648e-08
-4.45401e-07
5.4033e-08
-4.59684e-07
4.98916e-08
-4.72697e-07
4.54668e-08
-4.84367e-07
4.07849e-08
-4.94628e-07
3.58729e-08
-5.03424e-07
3.07581e-08
-5.10703e-07
2.54682e-08
-5.16424e-07
2.00315e-08
-5.20554e-07
1.44765e-08
-5.23068e-07
8.83241e-09
-5.23949e-07
3.12871e-09
-5.23189e-07
-2.60459e-09
-5.20789e-07
-8.33706e-09
-5.16758e-07
-1.40378e-08
-5.11115e-07
-1.96757e-08
-5.03887e-07
-2.5219e-08
-4.9511e-07
-3.06358e-08
-4.8483e-07
-3.58941e-08
-4.73102e-07
-4.09616e-08
-4.59989e-07
-4.58059e-08
-4.45565e-07
-5.0395e-08
-4.2991e-07
-5.46968e-08
-4.13117e-07
-5.86798e-08
-3.95283e-07
-6.23129e-08
-3.76517e-07
-6.55659e-08
-3.56933e-07
-6.84095e-08
-3.36657e-07
-7.08156e-08
-3.15817e-07
-7.27577e-08
-2.94551e-07
-7.42108e-08
-2.73003e-07
-7.51522e-08
-2.5132e-07
-7.55617e-08
-2.29656e-07
-7.54216e-08
-2.08166e-07
-7.47177e-08
-1.8701e-07
-7.34394e-08
-1.66346e-07
-7.15807e-08
-1.46333e-07
-6.91405e-08
-1.27128e-07
-6.61236e-08
-1.08882e-07
-6.25417e-08
-9.17416e-08
-5.84152e-08
-7.58416e-08
-5.37741e-08
-6.13054e-08
-4.86608e-08
-4.82401e-08
-4.3133e-08
-3.67321e-08
-3.7267e-08
-2.68422e-08
-3.11629e-08
-1.86007e-08
-2.4951e-08
-1.20008e-08
-1.87997e-08
-6.99264e-09
-1.29265e-08
-3.47617e-09
-7.61147e-09
-1.2956e-09
-3.2108e-09
-2.32972e-10
-1.75808e-10
8.8201e-10
-5.50634e-10
-1.6633e-10
-2.42962e-09
2.55498e-09
-5.83007e-09
7.41548e-09
-1.08998e-08
1.37361e-08
-1.77397e-08
2.10063e-08
-2.64049e-08
2.88187e-08
-3.69079e-08
3.68506e-08
-4.92235e-08
4.48501e-08
-6.32935e-08
5.26222e-08
-7.90316e-08
6.00174e-08
-9.63287e-08
6.69219e-08
-1.15057e-07
7.32512e-08
-1.35074e-07
7.89438e-08
-1.56227e-07
8.39564e-08
-1.78355e-07
8.82609e-08
-2.01292e-07
9.18408e-08
-2.24868e-07
9.46894e-08
-2.48913e-07
9.68077e-08
-2.73258e-07
9.82033e-08
-2.97735e-07
9.88885e-08
-3.2218e-07
9.88801e-08
-3.46432e-07
9.81984e-08
-3.70334e-07
9.68663e-08
-3.93738e-07
9.49091e-08
-4.16498e-07
9.23539e-08
-4.38477e-07
8.92297e-08
-4.59546e-07
8.55663e-08
-4.79579e-07
8.13951e-08
-4.98462e-07
7.67481e-08
-5.16088e-07
7.16583e-08
-5.32355e-07
6.61594e-08
-5.47174e-07
6.02857e-08
-5.60462e-07
5.40723e-08
-5.72143e-07
4.75546e-08
-5.82154e-07
4.07689e-08
-5.90438e-07
3.37519e-08
-5.96948e-07
2.6541e-08
-6.01645e-07
1.91742e-08
-6.04503e-07
1.16899e-08
-6.05501e-07
4.12743e-09
-6.04632e-07
-3.47361e-09
-6.01897e-07
-1.10729e-08
-5.97305e-07
-1.86296e-08
-5.90878e-07
-2.61023e-08
-5.82648e-07
-3.34494e-08
-5.72655e-07
-4.06287e-08
-5.60951e-07
-4.75977e-08
-5.47599e-07
-5.43141e-08
-5.32669e-07
-6.07352e-08
-5.16246e-07
-6.68187e-08
-4.9842e-07
-7.25226e-08
-4.79294e-07
-7.78054e-08
-4.58981e-07
-8.26265e-08
-4.376e-07
-8.69462e-08
-4.15284e-07
-9.07263e-08
-3.92169e-07
-9.39303e-08
-3.68403e-07
-9.65235e-08
-3.4414e-07
-9.84738e-08
-3.1954e-07
-9.97519e-08
-2.9477e-07
-1.00332e-07
-2.70001e-07
-1.00191e-07
-2.45406e-07
-9.93124e-08
-2.21163e-07
-9.76826e-08
-1.97449e-07
-9.52949e-08
-1.7444e-07
-9.21493e-08
-1.5231e-07
-8.82535e-08
-1.31227e-07
-8.36245e-08
-1.11352e-07
-7.829e-08
-9.28357e-08
-7.22907e-08
-7.58139e-08
-6.56826e-08
-6.04063e-08
-5.85407e-08
-4.67108e-08
-5.09625e-08
-3.48e-08
-4.30738e-08
-2.47159e-08
-3.50351e-08
-1.64656e-08
-2.70499e-08
-1.00166e-08
-1.93755e-08
-5.29252e-09
-1.23355e-08
-2.17029e-09
-6.33303e-09
-4.78774e-10
-1.86734e-09
4.03259e-10
-8.06438e-10
6.40079e-10
-3.35333e-09
5.10189e-09
-7.75925e-09
1.18214e-08
-1.41167e-08
2.00936e-08
-2.24848e-08
2.93744e-08
-3.28867e-08
3.92206e-08
-4.53104e-08
4.92742e-08
-5.97108e-08
5.92505e-08
-7.60131e-08
6.89245e-08
-9.41164e-08
7.81207e-08
-1.13898e-07
8.67035e-08
-1.35217e-07
9.457e-08
-1.57917e-07
1.01644e-07
-1.81832e-07
1.07871e-07
-2.06787e-07
1.13215e-07
-2.326e-07
1.17654e-07
-2.59088e-07
1.21177e-07
-2.86065e-07
1.23785e-07
-3.13347e-07
1.25485e-07
-3.40749e-07
1.26291e-07
-3.68093e-07
1.26224e-07
-3.95201e-07
1.25307e-07
-4.21904e-07
1.23569e-07
-4.48036e-07
1.21041e-07
-4.73438e-07
1.17756e-07
-4.9796e-07
1.13751e-07
-5.21457e-07
1.09064e-07
-5.43795e-07
1.03732e-07
-5.64844e-07
9.77975e-08
-5.84487e-07
9.13012e-08
-6.02613e-07
8.42858e-08
-6.19122e-07
7.67949e-08
-6.33923e-07
6.88729e-08
-6.46933e-07
6.05648e-08
-6.58081e-07
5.19168e-08
-6.67305e-07
4.29755e-08
-6.74552e-07
3.37883e-08
-6.79781e-07
2.44037e-08
-6.82962e-07
1.48704e-08
-6.84073e-07
5.23846e-09
-6.83105e-07
-4.44183e-09
-6.80059e-07
-1.41192e-08
-6.74946e-07
-2.37418e-08
-6.67791e-07
-3.32573e-08
-6.58628e-07
-4.26125e-08
-6.47503e-07
-5.17542e-08
-6.34472e-07
-6.06286e-08
-6.19604e-07
-6.91819e-08
-6.02979e-07
-7.73604e-08
-5.84687e-07
-8.51105e-08
-5.64831e-07
-9.23791e-08
-5.43522e-07
-9.9114e-08
-5.20885e-07
-1.05264e-07
-4.97052e-07
-1.10779e-07
-4.72166e-07
-1.15612e-07
-4.46381e-07
-1.19715e-07
-4.19857e-07
-1.23047e-07
-3.92763e-07
-1.25568e-07
-3.65276e-07
-1.27239e-07
-3.37576e-07
-1.28031e-07
-3.09853e-07
-1.27915e-07
-2.82295e-07
-1.2687e-07
-2.55097e-07
-1.24881e-07
-2.28451e-07
-1.2194e-07
-2.02551e-07
-1.1805e-07
-1.77585e-07
-1.1322e-07
-1.53736e-07
-1.07473e-07
-1.31181e-07
-1.00845e-07
-1.10083e-07
-9.33888e-08
-9.0592e-08
-8.51734e-08
-7.2841e-08
-7.62917e-08
-5.69412e-08
-6.68623e-08
-4.29789e-08
-5.70361e-08
-3.10116e-08
-4.70023e-08
-2.10647e-08
-3.69968e-08
-1.31284e-08
-2.73119e-08
-7.1553e-09
-1.83085e-08
-3.0609e-09
-1.04274e-08
-7.25181e-10
-4.20304e-09
-3.21913e-10
-1.05672e-09
1.69682e-09
-4.26931e-09
8.31444e-09
-9.6866e-09
1.72387e-08
-1.73454e-08
2.77524e-08
-2.72603e-08
3.92893e-08
-3.94191e-08
5.13794e-08
-5.37814e-08
6.36365e-08
-7.02788e-08
7.57479e-08
-8.88171e-08
8.74627e-08
-1.09278e-07
9.8582e-08
-1.31524e-07
1.0895e-07
-1.554e-07
1.18446e-07
-1.80736e-07
1.2698e-07
-2.07351e-07
1.34487e-07
-2.35057e-07
1.40922e-07
-2.6366e-07
1.46257e-07
-2.92961e-07
1.50478e-07
-3.22761e-07
1.53585e-07
-3.52861e-07
1.55585e-07
-3.83064e-07
1.56494e-07
-4.13176e-07
1.56335e-07
-4.43006e-07
1.55137e-07
-4.72371e-07
1.52934e-07
-5.01093e-07
1.49762e-07
-5.28999e-07
1.45663e-07
-5.55927e-07
1.40679e-07
-5.81721e-07
1.34857e-07
-6.06233e-07
1.28245e-07
-6.29326e-07
1.20891e-07
-6.50871e-07
1.12846e-07
-6.70749e-07
1.04163e-07
-6.8885e-07
9.48959e-08
-7.05075e-07
8.50982e-08
-7.19336e-07
7.48259e-08
-7.31555e-07
6.41355e-08
-7.41664e-07
5.30845e-08
-7.49607e-07
4.17315e-08
-7.55339e-07
3.01358e-08
-7.58826e-07
1.83579e-08
-7.60047e-07
6.45895e-09
-7.5899e-07
-5.49879e-09
-7.55657e-07
-1.74524e-08
-7.50061e-07
-2.93379e-08
-7.42227e-07
-4.1091e-08
-7.32193e-07
-5.26465e-08
-7.20008e-07
-6.39388e-08
-7.05735e-07
-7.49019e-08
-6.89447e-07
-8.54699e-08
-6.71231e-07
-9.55767e-08
-6.51184e-07
-1.05157e-07
-6.29418e-07
-1.14145e-07
-6.06054e-07
-1.22478e-07
-5.81226e-07
-1.30093e-07
-5.55077e-07
-1.36928e-07
-5.27762e-07
-1.42926e-07
-4.99447e-07
-1.48031e-07
-4.70305e-07
-1.5219e-07
-4.40518e-07
-1.55354e-07
-4.10277e-07
-1.5748e-07
-3.79779e-07
-1.5853e-07
-3.49223e-07
-1.5847e-07
-3.18818e-07
-1.57276e-07
-2.88769e-07
-1.54929e-07
-2.59286e-07
-1.51423e-07
-2.30576e-07
-1.4676e-07
-2.02843e-07
-1.40953e-07
-1.76284e-07
-1.34032e-07
-1.51089e-07
-1.2604e-07
-1.27436e-07
-1.17042e-07
-1.05489e-07
-1.0712e-07
-8.53958e-08
-9.63852e-08
-6.72817e-08
-8.49764e-08
-5.12497e-08
-7.30681e-08
-3.7376e-08
-6.08761e-08
-2.57076e-08
-4.86652e-08
-1.6261e-08
-3.67585e-08
-9.02189e-09
-2.55477e-08
-3.94656e-09
-1.55027e-08
-9.66853e-10
-7.18273e-09
-1.28878e-09
-1.29912e-09
2.99597e-09
-5.16642e-09
1.21817e-08
-1.15872e-08
2.36594e-08
-2.05444e-08
3.67096e-08
-3.20078e-08
5.07526e-08
-4.59277e-08
6.52994e-08
-6.22329e-08
7.99417e-08
-8.08291e-08
9.43441e-08
-1.016e-07
1.08234e-07
-1.24409e-07
1.21391e-07
-1.49101e-07
1.33642e-07
-1.75505e-07
1.4485e-07
-2.03437e-07
1.54912e-07
-2.32703e-07
1.63753e-07
-2.63101e-07
1.71319e-07
-2.94422e-07
1.77578e-07
-3.26456e-07
1.82512e-07
-3.5899e-07
1.86119e-07
-3.91812e-07
1.88407e-07
-4.24713e-07
1.89394e-07
-4.57484e-07
1.89107e-07
-4.89925e-07
1.87578e-07
-5.21837e-07
1.84847e-07
-5.53033e-07
1.80958e-07
-5.83328e-07
1.75958e-07
-6.12547e-07
1.69899e-07
-6.40525e-07
1.62836e-07
-6.67105e-07
1.54824e-07
-6.92138e-07
1.45924e-07
-7.15487e-07
1.36195e-07
-7.37025e-07
1.25701e-07
-7.56635e-07
1.14506e-07
-7.74211e-07
1.02674e-07
-7.89657e-07
9.02725e-08
-8.02891e-07
7.73694e-08
-8.13841e-07
6.40339e-08
-8.22445e-07
5.03361e-08
-8.28657e-07
3.63474e-08
-8.32439e-07
2.21403e-08
-8.33769e-07
7.78844e-09
-8.32634e-07
-6.63353e-09
-8.29037e-07
-2.105e-08
-8.2299e-07
-3.53843e-08
-8.14522e-07
-4.95592e-08
-8.03672e-07
-6.34965e-08
-7.90493e-07
-7.71176e-08
-7.75052e-07
-9.03435e-08
-7.57426e-07
-1.03095e-07
-7.3771e-07
-1.15293e-07
-7.16007e-07
-1.2686e-07
-6.92435e-07
-1.37717e-07
-6.67124e-07
-1.47789e-07
-6.40218e-07
-1.57e-07
-6.11868e-07
-1.65277e-07
-5.82242e-07
-1.72553e-07
-5.51514e-07
-1.78759e-07
-5.1987e-07
-1.83833e-07
-4.87504e-07
-1.87719e-07
-4.5462e-07
-1.90364e-07
-4.21427e-07
-1.91723e-07
-3.8814e-07
-1.91757e-07
-3.54977e-07
-1.90438e-07
-3.22162e-07
-1.87745e-07
-2.89915e-07
-1.8367e-07
-2.58459e-07
-1.78216e-07
-2.28011e-07
-1.71401e-07
-1.98784e-07
-1.6326e-07
-1.7098e-07
-1.53844e-07
-1.44793e-07
-1.43229e-07
-1.20401e-07
-1.31512e-07
-9.79675e-08
-1.18819e-07
-7.76352e-08
-1.05309e-07
-5.95253e-08
-9.1178e-08
-4.3735e-08
-7.66664e-08
-3.03358e-08
-6.20645e-08
-1.9373e-08
-4.77213e-08
-1.08669e-08
-3.40537e-08
-4.81574e-09
-2.15539e-08
-1.20124e-09
-1.07972e-08
-2.49003e-09
-1.53278e-09
4.52875e-09
-6.03916e-09
1.66881e-08
-1.34474e-08
3.10676e-08
-2.36896e-08
4.69518e-08
-3.66914e-08
6.37544e-08
-5.23652e-08
8.09732e-08
-7.06075e-08
9.81839e-08
-9.12963e-08
1.15033e-07
-1.14292e-07
1.31229e-07
-1.39436e-07
1.46535e-07
-1.66555e-07
1.60761e-07
-1.95462e-07
1.73757e-07
-2.25958e-07
1.85408e-07
-2.57834e-07
1.95629e-07
-2.90874e-07
2.04359e-07
-3.24857e-07
2.11561e-07
-3.59559e-07
2.17214e-07
-3.94755e-07
2.21315e-07
-4.3022e-07
2.23873e-07
-4.65734e-07
2.24908e-07
-5.01077e-07
2.24449e-07
-5.36035e-07
2.22536e-07
-5.70401e-07
2.19213e-07
-6.03974e-07
2.14531e-07
-6.36561e-07
2.08545e-07
-6.67977e-07
2.01315e-07
-6.98046e-07
1.92904e-07
-7.26601e-07
1.8338e-07
-7.53488e-07
1.72811e-07
-7.7856e-07
1.61267e-07
-8.01683e-07
1.48824e-07
-8.22732e-07
1.35555e-07
-8.41595e-07
1.21537e-07
-8.58173e-07
1.0685e-07
-8.72376e-07
9.15728e-08
-8.84129e-07
7.57867e-08
-8.93368e-07
5.95745e-08
-9.00041e-07
4.30203e-08
-9.0411e-07
2.62095e-08
-9.0555e-07
9.22861e-09
-9.04349e-07
-7.83447e-09
-9.00508e-07
-2.48907e-08
-8.94043e-07
-4.18501e-08
-8.8498e-07
-5.86216e-08
-8.73363e-07
-7.51134e-08
-8.59248e-07
-9.12331e-08
-8.42703e-07
-1.06888e-07
-8.23814e-07
-1.21985e-07
-8.02676e-07
-1.36431e-07
-7.794e-07
-1.50135e-07
-7.54112e-07
-1.63006e-07
-7.26948e-07
-1.74953e-07
-6.98058e-07
-1.85889e-07
-6.67606e-07
-1.9573e-07
-6.35766e-07
-2.04393e-07
-6.02722e-07
-2.11802e-07
-5.68672e-07
-2.17883e-07
-5.33822e-07
-2.2257e-07
-4.98384e-07
-2.25802e-07
-4.62581e-07
-2.27526e-07
-4.2664e-07
-2.27698e-07
-3.90794e-07
-2.26285e-07
-3.55276e-07
-2.23263e-07
-3.20323e-07
-2.18623e-07
-2.86169e-07
-2.12369e-07
-2.53047e-07
-2.04523e-07
-2.21182e-07
-1.95125e-07
-1.90792e-07
-1.84234e-07
-1.62086e-07
-1.71935e-07
-1.35259e-07
-1.58339e-07
-1.10489e-07
-1.43588e-07
-8.79394e-08
-1.27859e-07
-6.77505e-08
-1.11367e-07
-5.00427e-08
-9.43742e-08
-3.4914e-08
-7.71932e-08
-2.24401e-08
-6.01952e-08
-1.26767e-08
-4.38172e-08
-5.6628e-09
-2.85678e-08
-1.42737e-09
-1.50327e-08
-3.9174e-09
-1.75764e-09
6.28636e-09
-6.8856e-09
2.18161e-08
-1.52609e-08
3.9443e-08
-2.67685e-08
5.84595e-08
-4.12914e-08
7.82772e-08
-5.87044e-08
9.83862e-08
-7.88708e-08
1.1835e-07
-1.0164e-07
1.37802e-07
-1.26847e-07
1.56436e-07
-1.54311e-07
1.74e-07
-1.8384e-07
1.9029e-07
-2.15228e-07
2.05145e-07
-2.4826e-07
2.1844e-07
-2.82712e-07
2.3008e-07
-3.18354e-07
2.40001e-07
-3.54952e-07
2.48159e-07
-3.9227e-07
2.54532e-07
-4.30069e-07
2.59115e-07
-4.68115e-07
2.61918e-07
-5.06173e-07
2.62966e-07
-5.44014e-07
2.62291e-07
-5.81414e-07
2.59936e-07
-6.18156e-07
2.55954e-07
-6.54027e-07
2.50402e-07
-6.88826e-07
2.43343e-07
-7.22358e-07
2.34847e-07
-7.5444e-07
2.24986e-07
-7.84897e-07
2.13837e-07
-8.13565e-07
2.01479e-07
-8.40291e-07
1.87994e-07
-8.64934e-07
1.73467e-07
-8.87365e-07
1.57985e-07
-9.07465e-07
1.41638e-07
-9.25129e-07
1.24514e-07
-9.40265e-07
1.06708e-07
-9.52791e-07
8.83133e-08
-9.62642e-07
6.94253e-08
-9.69763e-07
5.01415e-08
-9.74114e-07
3.05607e-08
-9.75669e-07
1.07832e-08
-9.74414e-07
-9.08932e-09
-9.70351e-07
-2.89539e-08
-9.63495e-07
-4.87064e-08
-9.53875e-07
-6.82415e-08
-9.41535e-07
-8.7453e-08
-9.26534e-07
-1.06234e-07
-9.08945e-07
-1.24477e-07
-8.88854e-07
-1.42076e-07
-8.66363e-07
-1.58922e-07
-8.41589e-07
-1.7491e-07
-8.1466e-07
-1.89934e-07
-7.85722e-07
-2.03891e-07
-7.54931e-07
-2.1668e-07
-7.22458e-07
-2.28203e-07
-6.88485e-07
-2.38366e-07
-6.53208e-07
-2.4708e-07
-6.16831e-07
-2.5426e-07
-5.7957e-07
-2.5983e-07
-5.41651e-07
-2.63721e-07
-5.03306e-07
-2.65871e-07
-4.64774e-07
-2.6623e-07
-4.263e-07
-2.64759e-07
-3.88129e-07
-2.61433e-07
-3.50513e-07
-2.5624e-07
-3.13698e-07
-2.49184e-07
-2.7793e-07
-2.40291e-07
-2.4345e-07
-2.29604e-07
-2.10492e-07
-2.17192e-07
-1.79279e-07
-2.03148e-07
-1.50024e-07
-1.87595e-07
-1.22923e-07
-1.70689e-07
-9.81585e-08
-1.52623e-07
-7.5894e-08
-1.33631e-07
-5.62741e-08
-1.13994e-07
-3.9424e-08
-9.40433e-08
-2.54508e-08
-7.41684e-08
-1.44452e-08
-5.48228e-08
-6.48586e-09
-3.65271e-08
-1.64524e-09
-1.98733e-08
-5.56263e-09
-1.97416e-09
8.26051e-09
-7.70594e-09
2.75479e-08
-1.70264e-08
4.87635e-08
-2.97767e-08
7.12098e-08
-4.57992e-08
9.42996e-08
-6.49321e-08
1.17519e-07
-8.70055e-08
1.40424e-07
-1.11839e-07
1.62636e-07
-1.39242e-07
1.83839e-07
-1.69011e-07
2.03768e-07
-2.00932e-07
2.22211e-07
-2.3478e-07
2.38994e-07
-2.70324e-07
2.53984e-07
-3.07324e-07
2.6708e-07
-3.45536e-07
2.78213e-07
-3.84711e-07
2.87334e-07
-4.24601e-07
2.94422e-07
-4.64957e-07
2.9947e-07
-5.0553e-07
3.02492e-07
-5.46077e-07
3.03513e-07
-5.86358e-07
3.02571e-07
-6.26138e-07
2.99717e-07
-6.6519e-07
2.95006e-07
-7.03295e-07
2.88506e-07
-7.4024e-07
2.80288e-07
-7.75823e-07
2.70431e-07
-8.09853e-07
2.59016e-07
-8.42148e-07
2.46132e-07
-8.72537e-07
2.31868e-07
-9.00862e-07
2.16318e-07
-9.26974e-07
1.99579e-07
-9.50738e-07
1.8175e-07
-9.72032e-07
1.62932e-07
-9.90747e-07
1.43229e-07
-1.00678e-06
1.22746e-07
-1.02006e-06
1.0159e-07
-1.03051e-06
7.9872e-08
-1.03807e-06
5.77017e-08
-1.0427e-06
3.51922e-08
-1.04437e-06
1.24579e-08
-1.04308e-06
-1.03851e-08
-1.03881e-06
-3.32194e-08
-1.03159e-06
-5.5926e-08
-1.02145e-06
-7.83849e-08
-1.00843e-06
-1.00475e-07
-9.92588e-07
-1.22074e-07
-9.74004e-07
-1.43061e-07
-9.52768e-07
-1.63312e-07
-9.28985e-07
-1.82705e-07
-9.02775e-07
-2.0112e-07
-8.74273e-07
-2.18436e-07
-8.43629e-07
-2.34535e-07
-8.11005e-07
-2.49303e-07
-7.7658e-07
-2.62628e-07
-7.40544e-07
-2.74403e-07
-7.03098e-07
-2.84525e-07
-6.64459e-07
-2.929e-07
-6.2485e-07
-2.99439e-07
-5.84508e-07
-3.04064e-07
-5.43674e-07
-3.06705e-07
-5.02599e-07
-3.07305e-07
-4.61539e-07
-3.05819e-07
-4.20754e-07
-3.02218e-07
-3.80506e-07
-2.96488e-07
-3.41055e-07
-2.88635e-07
-3.02663e-07
-2.78683e-07
-2.65584e-07
-2.66683e-07
-2.30069e-07
-2.52707e-07
-1.96357e-07
-2.36859e-07
-1.64679e-07
-2.19273e-07
-1.35251e-07
-2.00116e-07
-1.08277e-07
-1.79597e-07
-8.39429e-08
-1.57966e-07
-6.24191e-08
-1.35518e-07
-4.38593e-08
-1.12603e-07
-2.84018e-08
-8.96259e-08
-1.61718e-08
-6.70528e-08
-7.28543e-09
-4.54135e-08
-1.85539e-09
-2.53033e-08
-7.418e-09
-2.18312e-09
1.04436e-08
-8.50173e-09
3.38665e-08
-1.87455e-08
5.90073e-08
-3.27151e-08
8.51793e-08
-5.02142e-08
1.11799e-07
-7.10454e-08
1.3835e-07
-9.50063e-08
1.64385e-07
-1.21887e-07
1.89517e-07
-1.51469e-07
2.13421e-07
-1.83526e-07
2.35825e-07
-2.17821e-07
2.56506e-07
-2.54111e-07
2.75284e-07
-2.92146e-07
2.92019e-07
-3.31671e-07
3.06605e-07
-3.72425e-07
3.18966e-07
-4.14147e-07
3.29056e-07
-4.56575e-07
3.3685e-07
-4.99448e-07
3.42344e-07
-5.42508e-07
3.45551e-07
-5.85499e-07
3.46504e-07
-6.2817e-07
3.45243e-07
-6.7028e-07
3.41826e-07
-7.1159e-07
3.36317e-07
-7.51874e-07
3.28789e-07
-7.9091e-07
3.19325e-07
-8.28491e-07
3.08011e-07
-8.64416e-07
2.94941e-07
-8.98497e-07
2.80213e-07
-9.30558e-07
2.63929e-07
-9.60434e-07
2.46193e-07
-9.87971e-07
2.27116e-07
-1.01303e-06
2.06809e-07
-1.03548e-06
1.85386e-07
-1.05522e-06
1.62964e-07
-1.07214e-06
1.39661e-07
-1.08615e-06
1.156e-07
-1.09718e-06
9.09031e-08
-1.10517e-06
6.56957e-08
-1.11008e-06
4.01051e-08
-1.11189e-06
1.42602e-08
-1.11056e-06
-1.1708e-08
-1.10611e-06
-3.7667e-08
-1.09856e-06
-6.34829e-08
-1.08792e-06
-8.90202e-08
-1.07426e-06
-1.14142e-07
-1.05762e-06
-1.38712e-07
-1.03809e-06
-1.62592e-07
-1.01576e-06
-1.85643e-07
-9.90733e-07
-2.07727e-07
-9.63143e-07
-2.2871e-07
-9.33125e-07
-2.48454e-07
-9.00833e-07
-2.66828e-07
-8.66436e-07
-2.837e-07
-8.30117e-07
-2.98947e-07
-7.92074e-07
-3.12446e-07
-7.52517e-07
-3.24082e-07
-7.11667e-07
-3.33749e-07
-6.6976e-07
-3.41346e-07
-6.2704e-07
-3.46784e-07
-5.83758e-07
-3.49986e-07
-5.40178e-07
-3.50885e-07
-4.96565e-07
-3.49432e-07
-4.53193e-07
-3.45591e-07
-4.10334e-07
-3.39346e-07
-3.68266e-07
-3.30703e-07
-3.27263e-07
-3.19687e-07
-2.87595e-07
-3.06351e-07
-2.49529e-07
-2.90774e-07
-2.13323e-07
-2.73066e-07
-1.79225e-07
-2.5337e-07
-1.47474e-07
-2.31867e-07
-1.18294e-07
-2.08777e-07
-9.18972e-08
-1.84363e-07
-6.8479e-08
-1.58936e-07
-4.82221e-08
-1.3286e-07
-3.12959e-08
-1.06552e-07
-1.78592e-08
-8.04895e-08
-8.06354e-09
-5.52091e-08
-2.05868e-09
-3.13082e-08
-9.47668e-09
-2.38541e-09
1.28291e-08
-9.27531e-09
4.07564e-08
-2.04218e-08
7.01538e-08
-3.55878e-08
1.00345e-07
-5.45408e-08
1.30752e-07
-7.70487e-08
1.60858e-07
-1.02877e-07
1.90213e-07
-1.31786e-07
2.18426e-07
-1.6353e-07
2.45165e-07
-1.97858e-07
2.70153e-07
-2.34512e-07
2.9316e-07
-2.73227e-07
3.13999e-07
-3.13735e-07
3.32527e-07
-3.55763e-07
3.48633e-07
-3.99037e-07
3.6224e-07
-4.43281e-07
3.733e-07
-4.8822e-07
3.81788e-07
-5.3358e-07
3.87703e-07
-5.79091e-07
3.91063e-07
-6.24488e-07
3.91901e-07
-6.69512e-07
3.90267e-07
-7.13909e-07
3.86223e-07
-7.57435e-07
3.79843e-07
-7.99853e-07
3.71207e-07
-8.40937e-07
3.60409e-07
-8.80469e-07
3.47544e-07
-9.18245e-07
3.32717e-07
-9.5407e-07
3.16038e-07
-9.87762e-07
2.9762e-07
-1.01915e-06
2.77582e-07
-1.04808e-06
2.56044e-07
-1.0744e-06
2.33132e-07
-1.09799e-06
2.08972e-07
-1.11872e-06
1.83697e-07
-1.1365e-06
1.57437e-07
-1.15123e-06
1.30329e-07
-1.16283e-06
1.02511e-07
-1.17126e-06
7.41212e-08
-1.17646e-06
4.53027e-08
-1.1784e-06
1.61991e-08
-1.17706e-06
-1.30433e-08
-1.17245e-06
-4.22769e-08
-1.16458e-06
-7.13519e-08
-1.15348e-06
-1.00117e-07
-1.13921e-06
-1.28421e-07
-1.12181e-06
-1.56109e-07
-1.10137e-06
-1.83028e-07
-1.07799e-06
-2.09023e-07
-1.05178e-06