/*--------------------------------*- C++ -*----------------------------------*\
  =========                 |
  \\      /  F ield         | OpenFOAM: The Open Source CFD Toolbox
   \\    /   O peration     | Website:  https://openfoam.org
    \\  /    A nd           | Version:  7
     \\/     M anipulation  |
\*---------------------------------------------------------------------------*/
FoamFile
{
    version     2.0;
    format      ascii;
    class       volVectorField;
    location    "0.275";
    object      U;
}
// * * * * * * * * * * * * * * * * * * * * * * * * * * * * * * * * * * * * * //

dimensions      [0 1 -1 0 0 0 0];

internalField   nonuniform List<vector> 
6400
(
(7.21486e-06 -7.28107e-06 0)
(2.97469e-05 -1.44538e-05 0)
(5.92536e-05 -1.41725e-05 0)
(8.05565e-05 -9.72714e-06 0)
(8.53879e-05 -3.41918e-06 0)
(7.05119e-05 3.54894e-06 0)
(3.48063e-05 1.0564e-05 0)
(-2.16996e-05 1.73099e-05 0)
(-9.82524e-05 2.36252e-05 0)
(-0.000193662 2.94274e-05 0)
(-0.000306482 3.46768e-05 0)
(-0.000435115 3.93584e-05 0)
(-0.000577884 4.34716e-05 0)
(-0.000733069 4.70242e-05 0)
(-0.000898943 5.00278e-05 0)
(-0.00107379 5.2497e-05 0)
(-0.00125592 5.44488e-05 0)
(-0.00144368 5.59018e-05 0)
(-0.00163548 5.68757e-05 0)
(-0.00182975 5.73907e-05 0)
(-0.00202501 5.74671e-05 0)
(-0.00221982 5.71253e-05 0)
(-0.0024128 5.63858e-05 0)
(-0.00260264 5.52694e-05 0)
(-0.00278811 5.37966e-05 0)
(-0.00296802 5.19878e-05 0)
(-0.00314125 4.98631e-05 0)
(-0.00330677 4.74425e-05 0)
(-0.00346359 4.4746e-05 0)
(-0.00361081 4.17938e-05 0)
(-0.00374757 3.86056e-05 0)
(-0.00387311 3.52015e-05 0)
(-0.00398671 3.16013e-05 0)
(-0.00408774 2.78249e-05 0)
(-0.00417563 2.38927e-05 0)
(-0.00424988 1.98251e-05 0)
(-0.00431006 1.5643e-05 0)
(-0.00435583 1.13675e-05 0)
(-0.0043869 7.01979e-06 0)
(-0.00440307 2.62181e-06 0)
(-0.00440421 -1.80424e-06 0)
(-0.00439027 -6.23559e-06 0)
(-0.00436128 -1.0649e-05 0)
(-0.00431735 -1.50206e-05 0)
(-0.00425867 -1.93263e-05 0)
(-0.00418552 -2.35416e-05 0)
(-0.00409825 -2.76414e-05 0)
(-0.00399732 -3.16003e-05 0)
(-0.00388326 -3.53925e-05 0)
(-0.00375667 -3.89919e-05 0)
(-0.00361829 -4.23726e-05 0)
(-0.00346889 -4.55083e-05 0)
(-0.00330936 -4.83731e-05 0)
(-0.00314067 -5.09411e-05 0)
(-0.00296387 -5.31866e-05 0)
(-0.0027801 -5.50845e-05 0)
(-0.00259057 -5.66104e-05 0)
(-0.00239658 -5.77405e-05 0)
(-0.00219949 -5.84521e-05 0)
(-0.00200075 -5.87235e-05 0)
(-0.00180185 -5.85343e-05 0)
(-0.00160435 -5.78654e-05 0)
(-0.00140987 -5.66992e-05 0)
(-0.00122007 -5.50207e-05 0)
(-0.00103664 -5.28166e-05 0)
(-0.000861292 -5.00757e-05 0)
(-0.000695762 -4.6789e-05 0)
(-0.000541778 -4.29514e-05 0)
(-0.000401048 -3.85636e-05 0)
(-0.000275233 -3.36324e-05 0)
(-0.00016592 -2.8173e-05 0)
(-7.45684e-05 -2.22133e-05 0)
(-2.44593e-06 -1.5806e-05 0)
(4.94792e-05 -9.04927e-06 0)
(8.07121e-05 -2.12392e-06 0)
(9.15158e-05 4.63521e-06 0)
(8.33344e-05 1.06037e-05 0)
(5.97321e-05 1.45874e-05 0)
(2.92179e-05 1.43434e-05 0)
(6.86966e-06 6.86717e-06 0)
(1.44309e-05 -2.98418e-05 0)
(5.14925e-05 -5.1485e-05 0)
(8.97403e-05 -4.4044e-05 0)
(0.000103441 -1.9068e-05 0)
(7.68945e-05 1.53353e-05 0)
(2.25806e-06 5.41366e-05 0)
(-0.000124161 9.42561e-05 0)
(-0.000303281 0.000133807 0)
(-0.000534063 0.000171633 0)
(-0.00081414 0.000207019 0)
(-0.00114027 0.000239524 0)
(-0.00150865 0.000268886 0)
(-0.00191508 0.000294963 0)
(-0.00235518 0.000317687 0)
(-0.00282442 0.000337051 0)
(-0.00331825 0.000353081 0)
(-0.00383212 0.000365834 0)
(-0.00436156 0.000375385 0)
(-0.00490217 0.000381828 0)
(-0.00544966 0.000385266 0)
(-0.0059999 0.00038581 0)
(-0.00654888 0.000383578 0)
(-0.00709276 0.000378692 0)
(-0.00762786 0.000371279 0)
(-0.00815067 0.000361465 0)
(-0.00865787 0.000349381 0)
(-0.00914631 0.000335158 0)
(-0.00961302 0.000318929 0)
(-0.0100552 0.000300825 0)
(-0.0104704 0.000280981 0)
(-0.010856 0.000259531 0)
(-0.01121 0.000236611 0)
(-0.0115302 0.000212358 0)
(-0.011815 0.000186909 0)
(-0.0120626 0.000160405 0)
(-0.0122718 0.000132985 0)
(-0.0124411 0.000104794 0)
(-0.0125698 7.5977e-05 0)
(-0.012657 4.66817e-05 0)
(-0.0127021 1.70587e-05 0)
(-0.0127047 -1.27389e-05 0)
(-0.0126649 -4.25551e-05 0)
(-0.0125825 -7.2231e-05 0)
(-0.0124581 -0.000101605 0)
(-0.0122921 -0.000130513 0)
(-0.0120853 -0.000158788 0)
(-0.0118388 -0.000186262 0)
(-0.0115539 -0.000212763 0)
(-0.011232 -0.00023812 0)
(-0.010875 -0.000262161 0)
(-0.0104848 -0.000284711 0)
(-0.0100638 -0.0003056 0)
(-0.0096144 -0.000324656 0)
(-0.00913934 -0.000341711 0)
(-0.00864159 -0.0003566 0)
(-0.00812436 -0.000369162 0)
(-0.00759105 -0.000379242 0)
(-0.00704529 -0.000386691 0)
(-0.0064909 -0.000391369 0)
(-0.00593188 -0.000393145 0)
(-0.0053724 -0.0003919 0)
(-0.00481678 -0.000387526 0)
(-0.00426945 -0.00037993 0)
(-0.00373496 -0.000369039 0)
(-0.00321792 -0.000354797 0)
(-0.00272298 -0.000337173 0)
(-0.00225477 -0.000316164 0)
(-0.00181788 -0.000291799 0)
(-0.00141676 -0.000264159 0)
(-0.00105565 -0.000233382 0)
(-0.000738498 -0.000199691 0)
(-0.000468752 -0.000163424 0)
(-0.000249212 -0.000125097 0)
(-8.17066e-05 -8.54994e-05 0)
(3.33339e-05 -4.58608e-05 0)
(9.74979e-05 -8.11884e-06 0)
(0.000115168 2.4642e-05 0)
(9.48105e-05 4.74736e-05 0)
(5.25932e-05 5.25408e-05 0)
(1.43464e-05 2.91948e-05 0)
(1.42762e-05 -5.94028e-05 0)
(4.45208e-05 -8.98368e-05 0)
(6.1191e-05 -6.03901e-05 0)
(3.5497e-05 6.78717e-06 0)
(-5.09231e-05 9.62912e-05 0)
(-0.000208279 0.000197472 0)
(-0.000441895 0.000303096 0)
(-0.000753477 0.000408324 0)
(-0.00114199 0.000509937 0)
(-0.00160443 0.000605795 0)
(-0.00213639 0.000694483 0)
(-0.00273246 0.000775087 0)
(-0.0033866 0.000847036 0)
(-0.0040923 0.000910008 0)
(-0.00484279 0.000963858 0)
(-0.00563118 0.00100857 0)
(-0.00645053 0.00104424 0)
(-0.00729393 0.001071 0)
(-0.00815458 0.00108907 0)
(-0.00902581 0.00109869 0)
(-0.00990114 0.00110016 0)
(-0.0107743 0.00109378 0)
(-0.0116392 0.00107987 0)
(-0.0124901 0.00105877 0)
(-0.0133214 0.00103083 0)
(-0.0141279 0.000996416 0)
(-0.0149044 0.000955889 0)
(-0.0156465 0.000909622 0)
(-0.0163495 0.000857991 0)
(-0.0170095 0.000801377 0)
(-0.0176225 0.000740163 0)
(-0.0181851 0.000674738 0)
(-0.0186941 0.000605494 0)
(-0.0191466 0.000532828 0)
(-0.01954 0.000457142 0)
(-0.0198721 0.000378844 0)
(-0.020141 0.000298345 0)
(-0.0203451 0.000216067 0)
(-0.0204831 0.000132435 0)
(-0.0205542 4.78838e-05 0)
(-0.0205579 -3.71467e-05 0)
(-0.0204939 -0.000122208 0)
(-0.0203624 -0.000206843 0)
(-0.020164 -0.000290589 0)
(-0.0198995 -0.000372976 0)
(-0.0195703 -0.000453528 0)
(-0.0191781 -0.000531763 0)
(-0.0187248 -0.000607196 0)
(-0.018213 -0.000679339 0)
(-0.0176454 -0.000747701 0)
(-0.0170253 -0.000811795 0)
(-0.0163563 -0.000871135 0)
(-0.0156423 -0.000925241 0)
(-0.0148876 -0.000973641 0)
(-0.014097 -0.00101587 0)
(-0.0132756 -0.00105149 0)
(-0.0124286 -0.00108007 0)
(-0.0115619 -0.0011012 0)
(-0.0106814 -0.00111449 0)
(-0.00979339 -0.00111961 0)
(-0.00890445 -0.00111622 0)
(-0.00802128 -0.00110406 0)
(-0.00715081 -0.00108289 0)
(-0.00630008 -0.00105254 0)
(-0.00547621 -0.00101291 0)
(-0.00468634 -0.000963958 0)
(-0.00393753 -0.000905749 0)
(-0.00323671 -0.000838457 0)
(-0.00259056 -0.000762403 0)
(-0.00200534 -0.000678097 0)
(-0.00148675 -0.000586306 0)
(-0.00103966 -0.000488144 0)
(-0.000667854 -0.000385218 0)
(-0.000373582 -0.000279843 0)
(-0.000157022 -0.000175384 0)
(-1.55499e-05 -7.67531e-05 0)
(5.70776e-05 8.85132e-06 0)
(7.18824e-05 7.10041e-05 0)
(4.79494e-05 9.48789e-05 0)
(1.46726e-05 5.97712e-05 0)
(1.00472e-05 -8.11487e-05 0)
(2.03718e-05 -0.000104293 0)
(-4.35268e-06 -3.50516e-05 0)
(-9.0877e-05 9.37566e-05 0)
(-0.000257339 0.00025938 0)
(-0.000514683 0.000445281 0)
(-0.000868813 0.0006396 0)
(-0.00132168 0.00083398 0)
(-0.00187213 0.00102257 0)
(-0.00251662 0.00120129 0)
(-0.00324988 0.00136734 0)
(-0.00406531 0.0015188 0)
(-0.00495537 0.00165443 0)
(-0.0059119 0.00177345 0)
(-0.00692629 0.00187545 0)
(-0.00798971 0.00196028 0)
(-0.00909319 0.002028 0)
(-0.0102278 0.00207883 0)
(-0.0113846 0.00211308 0)
(-0.0125548 0.00213118 0)
(-0.01373 0.00213364 0)
(-0.0149019 0.002121 0)
(-0.0160624 0.00209385 0)
(-0.0172038 0.00205283 0)
(-0.0183187 0.00199859 0)
(-0.0194002 0.00193181 0)
(-0.0204415 0.0018532 0)
(-0.0214363 0.00176345 0)
(-0.0223788 0.0016633 0)
(-0.0232635 0.00155348 0)
(-0.0240851 0.00143473 0)
(-0.0248391 0.0013078 0)
(-0.0255211 0.00117345 0)
(-0.0261273 0.00103247 0)
(-0.0266543 0.000885633 0)
(-0.0270989 0.00073373 0)
(-0.0274588 0.00057757 0)
(-0.0277318 0.000417971 0)
(-0.0279162 0.000255765 0)
(-0.0280109 9.17981e-05 0)
(-0.0280152 -7.30714e-05 0)
(-0.0279287 -0.00023797 0)
(-0.0277519 -0.000402011 0)
(-0.0274854 -0.000564294 0)
(-0.0271304 -0.000723907 0)
(-0.0266888 -0.000879928 0)
(-0.0261627 -0.00103142 0)
(-0.025555 -0.00117746 0)
(-0.0248689 -0.00131708 0)
(-0.0241082 -0.00144936 0)
(-0.0232772 -0.00157335 0)
(-0.0223807 -0.00168812 0)
(-0.021424 -0.00179276 0)
(-0.020413 -0.00188635 0)
(-0.0193538 -0.00196802 0)
(-0.0182533 -0.00203693 0)
(-0.0171185 -0.00209226 0)
(-0.015957 -0.00213325 0)
(-0.0147769 -0.00215918 0)
(-0.0135864 -0.00216941 0)
(-0.0123941 -0.00216335 0)
(-0.0112088 -0.00214052 0)
(-0.0100398 -0.00210051 0)
(-0.00889606 -0.00204306 0)
(-0.007787 -0.00196801 0)
(-0.00672183 -0.00187537 0)
(-0.00570968 -0.00176535 0)
(-0.00475942 -0.0016384 0)
(-0.00387953 -0.00149524 0)
(-0.0030779 -0.00133699 0)
(-0.0023616 -0.00116526 0)
(-0.0017366 -0.000982287 0)
(-0.00120743 -0.000791235 0)
(-0.000776691 -0.000596469 0)
(-0.000444517 -0.000404066 0)
(-0.000207853 -0.000222491 0)
(-5.96999e-05 -6.35284e-05 0)
(1.18808e-05 5.66461e-05 0)
(2.60816e-05 0.000116107 0)
(1.0898e-05 8.38001e-05 0)
(4.01433e-06 -8.69799e-05 0)
(-1.303e-05 -7.9408e-05 0)
(-9.20114e-05 5.00922e-05 0)
(-0.000253994 0.000259781 0)
(-0.000514811 0.000520272 0)
(-0.000884905 0.000809518 0)
(-0.00136985 0.00111113 0)
(-0.00197127 0.00141312 0)
(-0.00268757 0.00170679 0)
(-0.00351464 0.00198584 0)
(-0.00444639 0.0022458 0)
(-0.00547521 0.00248351 0)
(-0.00659234 0.00269684 0)
(-0.00778825 0.00288438 0)
(-0.0090528 0.00304532 0)
(-0.0103755 0.00317928 0)
(-0.0117457 0.00328623 0)
(-0.0131527 0.0033664 0)
(-0.0145857 0.00342022 0)
(-0.0160343 0.00344829 0)
(-0.017488 0.00345134 0)
(-0.0189369 0.0034302 0)
(-0.0203712 0.00338578 0)
(-0.0217814 0.00331907 0)
(-0.0231586 0.00323108 0)
(-0.0244941 0.0031229 0)
(-0.0257798 0.00299562 0)
(-0.0270079 0.00285038 0)
(-0.0281712 0.00268833 0)
(-0.029263 0.00251066 0)
(-0.0302769 0.00231856 0)
(-0.0312071 0.00211325 0)
(-0.0320484 0.00189597 0)
(-0.0327961 0.00166795 0)
(-0.0334459 0.00143048 0)
(-0.0339941 0.00118483 0)
(-0.0344376 0.000932327 0)
(-0.0347738 0.000674284 0)
(-0.0350008 0.000412056 0)
(-0.035117 0.000147013 0)
(-0.0351216 -0.000119453 0)
(-0.0350144 -0.000385928 0)
(-0.0347956 -0.000650975 0)
(-0.0344663 -0.000913141 0)
(-0.0340279 -0.00117095 0)
(-0.0334826 -0.00142291 0)
(-0.0328333 -0.00166753 0)
(-0.0320833 -0.00190329 0)
(-0.0312367 -0.00212868 0)
(-0.0302982 -0.00234218 0)
(-0.029273 -0.00254229 0)
(-0.028167 -0.00272752 0)
(-0.0269868 -0.00289639 0)
(-0.0257395 -0.00304748 0)
(-0.0244328 -0.00317939 0)
(-0.0230748 -0.00329077 0)
(-0.0216743 -0.00338034 0)
(-0.0202405 -0.0034469 0)
(-0.0187833 -0.00348934 0)
(-0.0173125 -0.00350665 0)
(-0.0158387 -0.00349796 0)
(-0.0143727 -0.00346251 0)
(-0.0129253 -0.00339974 0)
(-0.0115077 -0.00330928 0)
(-0.010131 -0.00319097 0)
(-0.00880627 -0.00304492 0)
(-0.00754438 -0.00287158 0)
(-0.00635584 -0.00267177 0)
(-0.00525064 -0.00244681 0)
(-0.00423802 -0.00219859 0)
(-0.00332622 -0.0019298 0)
(-0.00252214 -0.00164411 0)
(-0.00183102 -0.0013465 0)
(-0.00125593 -0.00104368 0)
(-0.000797281 -0.000744678 0)
(-0.000452215 -0.000461646 0)
(-0.000213889 -0.000210883 0)
(-7.06567e-05 -1.39883e-05 0)
(-5.26083e-06 0.000100618 0)
(5.25401e-06 9.30732e-05 0)
(-2.67128e-06 -7.36871e-05 0)
(-5.09384e-05 -7.23998e-06 0)
(-0.00019188 0.000205578 0)
(-0.000438721 0.000516401 0)
(-0.000803563 0.0008903 0)
(-0.0012954 0.00130036 0)
(-0.00191873 0.00172602 0)
(-0.00267426 0.00215178 0)
(-0.00355966 0.00256605 0)
(-0.00457004 0.00296024 0)
(-0.00569846 0.00332804 0)
(-0.00693634 0.0036649 0)
(-0.00827386 0.00396761 0)
(-0.00970025 0.00423404 0)
(-0.0112041 0.00446285 0)
(-0.0127735 0.00465333 0)
(-0.0143962 0.0048053 0)
(-0.0160601 0.00491895 0)
(-0.0177529 0.00499481 0)
(-0.0194625 0.00503363 0)
(-0.0211769 0.0050364 0)
(-0.0228845 0.00500425 0)
(-0.0245741 0.00493843 0)
(-0.0262346 0.00484032 0)
(-0.0278557 0.00471137 0)
(-0.0294273 0.00455311 0)
(-0.0309398 0.00436711 0)
(-0.0323843 0.004155 0)
(-0.0337524 0.00391846 0)
(-0.035036 0.00365918 0)
(-0.0362279 0.00337892 0)
(-0.0373213 0.00307942 0)
(-0.03831 0.00276249 0)
(-0.0391885 0.00242996 0)
(-0.0399518 0.00208366 0)
(-0.0405957 0.00172549 0)
(-0.0411165 0.00135734 0)
(-0.0415111 0.000981171 0)
(-0.0417773 0.000598938 0)
(-0.0419133 0.000212645 0)
(-0.0419183 -0.000175676 0)
(-0.0417918 -0.000563963 0)
(-0.0415342 -0.000950123 0)
(-0.0411468 -0.00133204 0)
(-0.0406313 -0.00170757 0)
(-0.0399903 -0.00207454 0)
(-0.039227 -0.00243078 0)
(-0.0383455 -0.00277409 0)
(-0.0373505 -0.00310228 0)
(-0.0362475 -0.00341317 0)
(-0.0350426 -0.00370456 0)
(-0.0337428 -0.00397432 0)
(-0.0323557 -0.00422033 0)
(-0.0308894 -0.00444052 0)
(-0.0293531 -0.00463289 0)
(-0.0277562 -0.00479551 0)
(-0.0261088 -0.00492658 0)
(-0.0244218 -0.00502438 0)
(-0.0227063 -0.00508733 0)
(-0.0209741 -0.00511405 0)
(-0.0192371 -0.00510329 0)
(-0.0175078 -0.00505407 0)
(-0.0157988 -0.00496562 0)
(-0.0141229 -0.0048375 0)
(-0.0124927 -0.00466957 0)
(-0.0109209 -0.00446213 0)
(-0.00941988 -0.00421592 0)
(-0.00800162 -0.00393227 0)
(-0.00667741 -0.00361319 0)
(-0.00545766 -0.00326154 0)
(-0.00435166 -0.00288125 0)
(-0.00336725 -0.00247759 0)
(-0.0025104 -0.00205752 0)
(-0.00178489 -0.00163025 0)
(-0.00119177 -0.00120778 0)
(-0.00072894 -0.000805868 0)
(-0.000390453 -0.00044501 0)
(-0.000165888 -0.000151656 0)
(-4.13447e-05 4.0267e-05 0)
(-1.10226e-06 8.42399e-05 0)
(-9.4489e-06 -4.00284e-05 0)
(-9.05912e-05 0.00011639 0)
(-0.000297573 0.000437658 0)
(-0.000634768 0.000870921 0)
(-0.00110968 0.00137692 0)
(-0.00172917 0.00192469 0)
(-0.00249604 0.00248996 0)
(-0.00340965 0.00305401 0)
(-0.00446653 0.00360251 0)
(-0.00566082 0.00412457 0)
(-0.0069846 0.00461201 0)
(-0.00842831 0.00505881 0)
(-0.00998108 0.00546062 0)
(-0.011631 0.00581445 0)
(-0.0133655 0.00611835 0)
(-0.0151714 0.00637125 0)
(-0.0170353 0.00657272 0)
(-0.0189436 0.0067229 0)
(-0.0208826 0.00682236 0)
(-0.0228388 0.00687204 0)
(-0.0247989 0.00687314 0)
(-0.0267499 0.00682713 0)
(-0.0286791 0.00673563 0)
(-0.0305743 0.00660044 0)
(-0.0324237 0.00642349 0)
(-0.0342159 0.0062068 0)
(-0.0359404 0.00595249 0)
(-0.0375868 0.00566275 0)
(-0.0391457 0.00533982 0)
(-0.0406081 0.004986 0)
(-0.0419657 0.00460366 0)
(-0.0432109 0.00419519 0)
(-0.0443368 0.00376303 0)
(-0.0453369 0.00330966 0)
(-0.0462058 0.00283759 0)
(-0.0469386 0.0023494 0)
(-0.0475312 0.00184767 0)
(-0.0479802 0.00133507 0)
(-0.0482828 0.000814256 0)
(-0.0484374 0.00028797 0)
(-0.0484426 -0.000241025 0)
(-0.0482983 -0.000769921 0)
(-0.0480049 -0.00129587 0)
(-0.0475636 -0.001816 0)
(-0.0469766 -0.00232738 0)
(-0.0462468 -0.00282709 0)
(-0.0453778 -0.00331217 0)
(-0.0443742 -0.00377964 0)
(-0.0432414 -0.00422653 0)
(-0.0419855 -0.00464989 0)
(-0.0406136 -0.00504678 0)
(-0.0391334 -0.00541429 0)
(-0.0375535 -0.00574957 0)
(-0.0358833 -0.00604985 0)
(-0.0341327 -0.00631245 0)
(-0.0323126 -0.00653479 0)
(-0.0304344 -0.00671445 0)
(-0.0285101 -0.00684915 0)
(-0.0265523 -0.00693683 0)
(-0.0245742 -0.00697563 0)
(-0.0225891 -0.00696397 0)
(-0.020611 -0.00690058 0)
(-0.018654 -0.00678452 0)
(-0.0167322 -0.00661527 0)
(-0.0148598 -0.00639277 0)
(-0.0130508 -0.00611753 0)
(-0.011319 -0.00579068 0)
(-0.00967761 -0.00541411 0)
(-0.00813909 -0.00499066 0)
(-0.00671499 -0.00452424 0)
(-0.00541563 -0.00402014 0)
(-0.00424979 -0.00348532 0)
(-0.00322438 -0.0029288 0)
(-0.00234407 -0.00236226 0)
(-0.00161092 -0.00180062 0)
(-0.00102407 -0.00126294 0)
(-0.000579064 -0.000773498 0)
(-0.000267388 -0.000362869 0)
(-7.9373e-05 -6.93548e-05 0)
(-7.59617e-06 5.59301e-05 0)
(-1.60555e-05 1.42526e-05 0)
(-0.000130423 0.000293302 0)
(-0.000405116 0.000749591 0)
(-0.000835383 0.00132752 0)
(-0.00142369 0.00198465 0)
(-0.00217431 0.00268677 0)
(-0.00308791 0.00340651 0)
(-0.0041621 0.0041223 0)
(-0.00539197 0.00481727 0)
(-0.00677044 0.00547837 0)
(-0.00828849 0.0060956 0)
(-0.00993547 0.00666145 0)
(-0.0116995 0.0071704 0)
(-0.0135675 0.00761856 0)
(-0.0155258 0.00800334 0)
(-0.0175602 0.00832321 0)
(-0.0196559 0.0085775 0)
(-0.0217982 0.00876625 0)
(-0.0239723 0.00889006 0)
(-0.0261633 0.00895001 0)
(-0.0283567 0.00894757 0)
(-0.0305382 0.00888451 0)
(-0.032694 0.00876287 0)
(-0.0348106 0.0085849 0)
(-0.0368751 0.00835303 0)
(-0.038875 0.00806984 0)
(-0.0407985 0.00773802 0)
(-0.0426345 0.00736038 0)
(-0.0443725 0.0069398 0)
(-0.0460024 0.00647925 0)
(-0.0475153 0.00598178 0)
(-0.0489026 0.00545047 0)
(-0.0501568 0.00488848 0)
(-0.0512707 0.00429904 0)
(-0.0522384 0.0036854 0)
(-0.0530544 0.00305088 0)
(-0.0537141 0.00239888 0)
(-0.0542139 0.0017328 0)
(-0.0545509 0.00105615 0)
(-0.0547228 0.000372444 0)
(-0.0547286 -0.000314717 0)
(-0.0545679 -0.0010017 0)
(-0.0542412 -0.0016848 0)
(-0.0537499 -0.00236031 0)
(-0.0530964 -0.00302444 0)
(-0.0522839 -0.0036734 0)
(-0.0513164 -0.00430337 0)
(-0.0501989 -0.0049105 0)
(-0.0489375 -0.00549097 0)
(-0.0475389 -0.00604097 0)
(-0.0460108 -0.00655669 0)
(-0.0443619 -0.00703443 0)
(-0.0426015 -0.00747051 0)
(-0.0407399 -0.00786137 0)
(-0.0387882 -0.00820359 0)
(-0.0367583 -0.00849387 0)
(-0.0346626 -0.00872913 0)
(-0.0325145 -0.00890648 0)
(-0.0303276 -0.00902331 0)
(-0.0281165 -0.00907729 0)
(-0.0258958 -0.00906646 0)
(-0.0236807 -0.00898925 0)
(-0.0214866 -0.00884455 0)
(-0.019329 -0.0086318 0)
(-0.0172233 -0.00835101 0)
(-0.015185 -0.00800296 0)
(-0.0132288 -0.0075892 0)
(-0.0113693 -0.00711228 0)
(-0.00961997 -0.00657588 0)
(-0.00799359 -0.00598506 0)
(-0.00650147 -0.0053465 0)
(-0.00515346 -0.00466888 0)
(-0.00395752 -0.00396327 0)
(-0.00291948 -0.0032437 0)
(-0.00204275 -0.00252781 0)
(-0.00132805 -0.00183768 0)
(-0.000772891 -0.00120081 0)
(-0.000371117 -0.000651148 0)
(-0.00011774 -0.000230274 0)
(-1.39518e-05 7.78783e-06 0)
(-2.23833e-05 8.88592e-05 0)
(-0.000169589 0.000523782 0)
(-0.000512122 0.00114253 0)
(-0.00103627 0.00188807 0)
(-0.00173933 0.00271578 0)
(-0.0026227 0.00358897 0)
(-0.00368463 0.00447774 0)
(-0.00492067 0.00535808 0)
(-0.00632423 0.0062109 0)
(-0.00788677 0.00702114 0)
(-0.00959801 0.0077771 0)
(-0.0114461 0.00846985 0)
(-0.0134181 0.00909271 0)
(-0.0154998 0.00964089 0)
(-0.0176765 0.0101111 0)
(-0.0199328 0.0105014 0)
(-0.0222529 0.0108109 0)
(-0.0246209 0.0110393 0)
(-0.0270209 0.0111875 0)
(-0.0294369 0.0112565 0)
(-0.0318533 0.0112482 0)
(-0.0342548 0.0111645 0)
(-0.0366262 0.0110081 0)
(-0.0389531 0.0107816 0)
(-0.0412216 0.0104879 0)
(-0.0434182 0.0101303 0)
(-0.04553 0.00971211 0)
(-0.0475451 0.00923672 0)
(-0.049452 0.00870775 0)
(-0.05124 0.00812889 0)
(-0.0528992 0.00750391 0)
(-0.0544204 0.00683668 0)
(-0.0557953 0.00613115 0)
(-0.0570165 0.00539132 0)
(-0.0580771 0.00462128 0)
(-0.0589714 0.00382518 0)
(-0.0596945 0.00300726 0)
(-0.0602423 0.00217179 0)
(-0.0606117 0.00132315 0)
(-0.0608003 0.000465739 0)
(-0.060807 -0.000395937 0)
(-0.0606312 -0.00125733 0)
(-0.0602737 -0.00211384 0)
(-0.0597358 -0.00296079 0)
(-0.0590203 -0.00379349 0)
(-0.0581304 -0.00460719 0)
(-0.0570707 -0.00539712 0)
(-0.0558467 -0.00615851 0)
(-0.0544647 -0.00688659 0)
(-0.0529321 -0.0075766 0)
(-0.0512572 -0.00822385 0)
(-0.0494495 -0.00882369 0)
(-0.047519 -0.0093716 0)
(-0.0454769 -0.00986317 0)
(-0.0433352 -0.0102941 0)
(-0.0411066 -0.0106605 0)
(-0.0388048 -0.0109583 0)
(-0.0364439 -0.0111842 0)
(-0.034039 -0.0113349 0)
(-0.0316054 -0.0114076 0)
(-0.0291592 -0.0113998 0)
(-0.0267166 -0.0113098 0)
(-0.0242943 -0.0111363 0)
(-0.0219089 -0.0108786 0)
(-0.0195771 -0.0105369 0)
(-0.0173153 -0.0101122 0)
(-0.0151398 -0.00960646 0)
(-0.0130659 -0.00902301 0)
(-0.0111086 -0.0083664 0)
(-0.00928146 -0.0076428 0)
(-0.00759712 -0.00686033 0)
(-0.00606651 -0.00602931 0)
(-0.00469887 -0.00516279 0)
(-0.00350139 -0.00427702 0)
(-0.00247907 -0.00339209 0)
(-0.00163454 -0.00253272 0)
(-0.000967569 -0.00172913 0)
(-0.000474628 -0.00101789 0)
(-0.000155562 -0.000442954 0)
(-2.00493e-05 -5.99612e-05 0)
(-2.84006e-05 0.000183216 0)
(-0.000207664 0.000807208 0)
(-0.000617229 0.00161628 0)
(-0.00123481 0.00255287 0)
(-0.00205259 0.003571 0)
(-0.00306899 0.00463216 0)
(-0.00427965 0.00570446 0)
(-0.00567783 0.00676188 0)
(-0.00725506 0.0077834 0)
(-0.00900119 0.00875219 0)
(-0.0109045 0.009655 0)
(-0.0129519 0.0104816 0)
(-0.0151291 0.0112241 0)
(-0.017421 0.011877 0)
(-0.0198117 0.0124364 0)
(-0.0222846 0.0128997 0)
(-0.024823 0.0132657 0)
(-0.02741 0.0135343 0)
(-0.0300285 0.0137061 0)
(-0.0326615 0.0137825 0)
(-0.0352925 0.0137654 0)
(-0.0379049 0.0136574 0)
(-0.0404829 0.0134613 0)
(-0.043011 0.0131803 0)
(-0.0454742 0.0128181 0)
(-0.0478582 0.0123783 0)
(-0.0501493 0.011865 0)
(-0.0523346 0.0112824 0)
(-0.054402 0.0106347 0)
(-0.05634 0.00992644 0)
(-0.0581379 0.0091622 0)
(-0.059786 0.00834664 0)
(-0.0612754 0.00748455 0)
(-0.0625981 0.00658082 0)
(-0.0637469 0.0056404 0)
(-0.0647155 0.00466834 0)
(-0.0654988 0.00366979 0)
(-0.0660923 0.00264995 0)
(-0.0664926 0.00161414 0)
(-0.0666975 0.000567727 0)
(-0.0667053 -0.000483829 0)
(-0.0665159 -0.001535 0)
(-0.0661297 -0.00258018 0)
(-0.0655485 -0.00361371 0)
(-0.0647748 -0.00462988 0)
(-0.0638125 -0.00562294 0)
(-0.0626662 -0.00658711 0)
(-0.0613418 -0.00751658 0)
(-0.0598462 -0.0084056 0)
(-0.0581872 -0.00924839 0)
(-0.0563737 -0.0100393 0)
(-0.0544157 -0.0107727 0)
(-0.052324 -0.0114431 0)
(-0.0501106 -0.0120452 0)
(-0.0477882 -0.0125739 0)
(-0.0453704 -0.0130243 0)
(-0.0428717 -0.0133919 0)
(-0.0403074 -0.0136723 0)
(-0.0376933 -0.0138619 0)
(-0.035046 -0.0139571 0)
(-0.0323824 -0.0139553 0)
(-0.02972 -0.0138542 0)
(-0.0270765 -0.0136523 0)
(-0.0244695 -0.0133491 0)
(-0.021917 -0.0129446 0)
(-0.0194366 -0.0124403 0)
(-0.0170454 -0.0118387 0)
(-0.0147602 -0.0111435 0)
(-0.0125968 -0.0103604 0)
(-0.0105702 -0.00949654 0)
(-0.00869417 -0.00856148 0)
(-0.00698089 -0.00756714 0)
(-0.00544101 -0.00652838 0)
(-0.0040833 -0.00546349 0)
(-0.00291454 -0.00439473 0)
(-0.00193953 -0.00334909 0)
(-0.00116045 -0.00235902 0)
(-0.000576524 -0.00146312 0)
(-0.000192391 -0.00070692 0)
(-2.5849e-05 -0.000146795 0)
(-3.41111e-05 0.000296631 0)
(-0.000244472 0.00114245 0)
(-0.000719733 0.00216978 0)
(-0.00142951 0.00332117 0)
(-0.00236108 0.00454988 0)
(-0.00350985 0.00581614 0)
(-0.00486874 0.00708656 0)
(-0.00642862 0.00833348 0)
(-0.00817896 0.00953427 0)
(-0.0101079 0.0106706 0)
(-0.012202 0.0117278 0)
(-0.014447 0.0126945 0)
(-0.0168272 0.0135619 0)
(-0.0193263 0.0143235 0)
(-0.0219273 0.0149748 0)
(-0.0246126 0.0155129 0)
(-0.0273645 0.0159363 0)
(-0.0301649 0.0162448 0)
(-0.0329959 0.016439 0)
(-0.0358394 0.0165206 0)
(-0.038678 0.0164916 0)
(-0.0414942 0.016355 0)
(-0.0442713 0.0161142 0)
(-0.0469928 0.0157728 0)
(-0.049643 0.0153351 0)
(-0.0522067 0.0148055 0)
(-0.0546695 0.0141886 0)
(-0.0570177 0.0134895 0)
(-0.0592384 0.0127131 0)
(-0.0613196 0.0118648 0)
(-0.0632499 0.01095 0)
(-0.0650191 0.00997426 0)
(-0.0666178 0.00894326 0)
(-0.0680373 0.00786278 0)
(-0.0692702 0.00673872 0)
(-0.0703098 0.00557709 0)
(-0.0711506 0.004384 0)
(-0.071788 0.00316565 0)
(-0.0722183 0.00192834 0)
(-0.0724391 0.00067846 0)
(-0.0724487 -0.000577493 0)
(-0.0722469 -0.00183295 0)
(-0.0718342 -0.00308126 0)
(-0.0712124 -0.0043157 0)
(-0.0703842 -0.00552949 0)
(-0.0693537 -0.0067158 0)
(-0.0681258 -0.00786777 0)
(-0.0667066 -0.00897854 0)
(-0.0651034 -0.0100412 0)
(-0.0633245 -0.0110491 0)
(-0.0613794 -0.0119954 0)
(-0.0592784 -0.0128734 0)
(-0.0570331 -0.0136767 0)
(-0.0546561 -0.0143991 0)
(-0.0521608 -0.0150344 0)
(-0.0495616 -0.015577 0)
(-0.0468739 -0.0160214 0)
(-0.0441137 -0.0163627 0)
(-0.0412978 -0.0165963 0)
(-0.0384437 -0.0167185 0)
(-0.0355693 -0.0167258 0)
(-0.0326932 -0.0166158 0)
(-0.0298339 -0.0163868 0)
(-0.0270103 -0.0160381 0)
(-0.0242414 -0.0155699 0)
(-0.0215458 -0.0149838 0)
(-0.0189418 -0.0142829 0)
(-0.0164474 -0.0134716 0)
(-0.0140795 -0.0125564 0)
(-0.0118545 -0.0115455 0)
(-0.00978717 -0.0104497 0)
(-0.00789136 -0.00928248 0)
(-0.00617917 -0.00806037 0)
(-0.00466111 -0.00680346 0)
(-0.00334592 -0.00553595 0)
(-0.00224065 -0.00428673 0)
(-0.00135004 -0.00309004 0)
(-0.000676089 -0.00198601 0)
(-0.000228039 -0.00102118 0)
(-3.13508e-05 -0.000252066 0)
(-3.9535e-05 0.000428386 0)
(-0.000279978 0.00152816 0)
(-0.000819349 0.00280153 0)
(-0.00161967 0.00419158 0)
(-0.00266353 0.00565124 0)
(-0.00394338 0.00713996 0)
(-0.00544942 0.00862321 0)
(-0.00717003 0.0100721 0)
(-0.00909252 0.0114626 0)
(-0.0112031 0.0127752 0)
(-0.0134868 0.0139941 0)
(-0.0159277 0.0151068 0)
(-0.0185089 0.0161035 0)
(-0.0212128 0.0169772 0)
(-0.0240212 0.0177228 0)
(-0.0269155 0.0183369 0)
(-0.0298769 0.018818 0)
(-0.0328863 0.0191657 0)
(-0.0359248 0.0193806 0)
(-0.0389736 0.0194647 0)
(-0.0420141 0.0194203 0)
(-0.0450282 0.0192507 0)
(-0.0479981 0.0189599 0)
(-0.0509067 0.0185521 0)
(-0.0537375 0.018032 0)
(-0.0564745 0.0174049 0)
(-0.0591027 0.0166761 0)
(-0.0616076 0.0158513 0)
(-0.0639758 0.0149366 0)
(-0.0661945 0.013938 0)
(-0.068252 0.0128618 0)
(-0.0701374 0.0117145 0)
(-0.0718408 0.0105027 0)
(-0.0733534 0.00923326 0)
(-0.0746671 0.00791294 0)
(-0.075775 0.0065488 0)
(-0.0766713 0.00514795 0)
(-0.0773512 0.00371764 0)
(-0.0778107 0.00226522 0)
(-0.0780474 0.000798158 0)
(-0.0780595 -0.000675976 0)
(-0.0778466 -0.00214951 0)
(-0.0774094 -0.0036147 0)
(-0.0767496 -0.00506369 0)
(-0.0758702 -0.00648859 0)
(-0.0747752 -0.00788142 0)
(-0.07347 -0.00923421 0)
(-0.0719609 -0.010539 0)
(-0.0702555 -0.0117877 0)
(-0.0683624 -0.0129725 0)
(-0.0662916 -0.0140854 0)
(-0.0640539 -0.0151189 0)
(-0.0616615 -0.0160654 0)
(-0.0591274 -0.0169176 0)
(-0.0564658 -0.0176684 0)
(-0.0536918 -0.0183113 0)
(-0.0508214 -0.0188399 0)
(-0.0478715 -0.0192485 0)
(-0.0448597 -0.0195319 0)
(-0.0418045 -0.0196856 0)
(-0.0387245 -0.0197058 0)
(-0.0356394 -0.0195897 0)
(-0.0325686 -0.0193352 0)
(-0.0295322 -0.0189416 0)
(-0.02655 -0.0184092 0)
(-0.0236418 -0.0177399 0)
(-0.0208271 -0.0169371 0)
(-0.0181251 -0.0160058 0)
(-0.0155539 -0.0149533 0)
(-0.013131 -0.0137889 0)
(-0.010873 -0.0125246 0)
(-0.0087949 -0.0111751 0)
(-0.00691065 -0.00975861 0)
(-0.00523256 -0.00829671 0)
(-0.00377144 -0.0068153 0)
(-0.00253672 -0.00534488 0)
(-0.00153567 -0.00392112 0)
(-0.00077305 -0.00258528 0)
(-0.000262473 -0.00138451 0)
(-3.6575e-05 -0.000375098 0)
(-4.47007e-05 0.00057779 0)
(-0.000314233 0.00196287 0)
(-0.000916059 0.00350978 0)
(-0.00180507 0.00516235 0)
(-0.00295942 0.00687349 0)
(-0.00436873 0.0086022 0)
(-0.00602046 0.0103132 0)
(-0.00790049 0.0119766 0)
(-0.00999391 0.0135673 0)
(-0.012285 0.0150649 0)
(-0.0147569 0.0164525 0)
(-0.0173923 0.0177166 0)
(-0.0201727 0.018847 0)
(-0.0230793 0.0198358 0)
(-0.0260927 0.0206775 0)
(-0.0291931 0.0213685 0)
(-0.0323607 0.0219071 0)
(-0.0355755 0.0222927 0)
(-0.0388176 0.0225263 0)
(-0.0420673 0.0226099 0)
(-0.0453051 0.0225462 0)
(-0.0485122 0.0223391 0)
(-0.0516699 0.0219928 0)
(-0.0547605 0.0215123 0)
(-0.0577666 0.0209029 0)
(-0.0606717 0.0201707 0)
(-0.0634599 0.0193217 0)
(-0.0661165 0.0183626 0)
(-0.0686271 0.0173 0)
(-0.0709787 0.016141 0)
(-0.073159 0.0148929 0)
(-0.0751566 0.0135632 0)
(-0.0769613 0.0121593 0)
(-0.0785637 0.010689 0)
(-0.0799556 0.00916039 0)
(-0.0811297 0.00758135 0)
(-0.0820799 0.00596013 0)
(-0.0828012 0.00430504 0)
(-0.0832895 0.00262454 0)
(-0.0835422 0.000927202 0)
(-0.0835575 -0.000778267 0)
(-0.0833349 -0.00248306 0)
(-0.082875 -0.00417827 0)
(-0.0821797 -0.00585488 0)
(-0.0812521 -0.00750382 0)
(-0.0800962 -0.00911595 0)
(-0.0787176 -0.0106821 0)
(-0.0771229 -0.0121931 0)
(-0.0753199 -0.0136398 0)
(-0.0733176 -0.015013 0)
(-0.0711263 -0.0163039 0)
(-0.0687573 -0.0175035 0)
(-0.0662232 -0.0186033 0)
(-0.0635375 -0.0195948 0)
(-0.0607151 -0.0204701 0)
(-0.0577717 -0.0212214 0)
(-0.0547239 -0.0218417 0)
(-0.0515894 -0.0223243 0)
(-0.0483866 -0.0226634 0)
(-0.0451346 -0.0228537 0)
(-0.0418532 -0.022891 0)
(-0.0385626 -0.0227718 0)
(-0.0352836 -0.0224941 0)
(-0.0320371 -0.0220568 0)
(-0.0288439 -0.0214603 0)
(-0.025725 -0.0207067 0)
(-0.0227011 -0.0197997 0)
(-0.0197925 -0.018745 0)
(-0.0170187 -0.0175504 0)
(-0.0143986 -0.0162264 0)
(-0.0119502 -0.0147858 0)
(-0.00969019 -0.0132448 0)
(-0.00763429 -0.0116227 0)
(-0.00579671 -0.00994264 0)
(-0.00419047 -0.00823194 0)
(-0.00282735 -0.00652241 0)
(-0.0017172 -0.00485089 0)
(-0.000867422 -0.00325946 0)
(-0.000295756 -0.00179562 0)
(-4.1552e-05 -0.000515242 0)
(-4.96408e-05 0.000744204 0)
(-0.00034734 0.00244519 0)
(-0.00101 0.00429277 0)
(-0.00198583 0.00623159 0)
(-0.00324879 0.00821481 0)
(-0.00478576 0.0102012 0)
(-0.00658154 0.0121549 0)
(-0.0086195 0.0140455 0)
(-0.0108825 0.0158471 0)
(-0.0133527 0.0175383 0)
(-0.0160115 0.0191014 0)
(-0.0188399 0.0205225 0)
(-0.021818 0.0217906 0)
(-0.0249255 0.0228972 0)
(-0.0281418 0.0238366 0)
(-0.0314461 0.024605 0)
(-0.0348174 0.0252005 0)
(-0.0382346 0.0256226 0)
(-0.0416771 0.0258724 0)
(-0.0451241 0.0259522 0)
(-0.0485556 0.0258652 0)
(-0.0519516 0.0256156 0)
(-0.0552931 0.0252082 0)
(-0.0585613 0.0246487 0)
(-0.0617384 0.0239432 0)
(-0.0648072 0.0230982 0)
(-0.0677513 0.0221209 0)
(-0.0705552 0.0210185 0)
(-0.0732043 0.0197989 0)
(-0.0756849 0.0184699 0)
(-0.0779844 0.0170397 0)
(-0.0800909 0.0155168 0)
(-0.0819938 0.0139098 0)
(-0.0836836 0.0122275 0)
(-0.0851515 0.0104789 0)
(-0.0863901 0.00867313 0)
(-0.087393 0.00681943 0)
(-0.088155 0.00492728 0)
(-0.088672 0.00300627 0)
(-0.0889411 0.00106612 0)
(-0.0889604 -0.000883297 0)
(-0.0887294 -0.00283198 0)
(-0.0882488 -0.00476984 0)
(-0.0875203 -0.00668665 0)
(-0.0865471 -0.00857211 0)
(-0.0853335 -0.0104159 0)
(-0.0838851 -0.0122075 0)
(-0.0822086 -0.0139367 0)
(-0.0803121 -0.015593 0)
(-0.078205 -0.0171661 0)
(-0.0758977 -0.0186458 0)
(-0.0734021 -0.0200221 0)
(-0.070731 -0.0212852 0)