/*--------------------------------*- C++ -*----------------------------------*\
  =========                 |
  \\      /  F ield         | OpenFOAM: The Open Source CFD Toolbox
   \\    /   O peration     | Website:  https://openfoam.org
    \\  /    A nd           | Version:  7
     \\/     M anipulation  |
\*---------------------------------------------------------------------------*/
FoamFile
{
    version     2.0;
    format      ascii;
    class       volScalarField;
    location    "0.3";
    object      p;
}
// * * * * * * * * * * * * * * * * * * * * * * * * * * * * * * * * * * * * * //

dimensions      [0 2 -2 0 0 0 0];

internalField   nonuniform List<scalar> 
6400
(
5.12217e-06
2.09388e-05
-0.000485343
-0.00151821
-0.00296054
-0.00470211
-0.00664262
-0.00869255
-0.0107747
-0.0128236
-0.0147841
-0.0166102
-0.0182634
-0.0197121
-0.0209303
-0.0218974
-0.0225973
-0.0230178
-0.0231504
-0.0229896
-0.022533
-0.0217807
-0.0207351
-0.0194008
-0.0177843
-0.0158936
-0.0137388
-0.0113311
-0.00868314
-0.00580881
-0.00272312
0.000557907
0.00401729
0.00763716
0.0113989
0.0152831
0.0192698
0.0233384
0.0274678
0.0316365
0.0358226
0.0400041
0.0441588
0.0482643
0.0522984
0.056239
0.0600644
0.0637531
0.0672842
0.0706374
0.0737934
0.0767337
0.079441
0.0818991
0.0840934
0.0860109
0.0876404
0.0889727
0.0900008
0.0907202
0.0911288
0.0912276
0.0910206
0.0905152
0.0897224
0.0886574
0.0873394
0.0857925
0.0840462
0.0821356
0.0801026
0.0779962
0.0758739
0.0738028
0.0718602
0.0701347
0.0687235
0.0677308
0.0672633
0.067301
-3.11123e-06
1.03924e-05
-0.000443301
-0.00132666
-0.00254046
-0.00400555
-0.00564603
-0.00738953
-0.00917081
-0.0109326
-0.0126253
-0.0142063
-0.0156397
-0.016895
-0.0179473
-0.0187762
-0.0193654
-0.0197025
-0.0197784
-0.0195871
-0.0191251
-0.0183918
-0.0173886
-0.016119
-0.0145884
-0.012804
-0.0107744
-0.00850986
-0.00602182
-0.00332298
-0.000427139
0.00265089
0.00589534
0.00928963
0.0128163
0.0164574
0.0201941
0.0240072
0.0278769
0.0317831
0.0357053
0.0396228
0.0435148
0.0473606
0.0511392
0.0548302
0.0584132
0.0618682
0.065176
0.0683178
0.0712757
0.0740328
0.076573
0.0788819
0.0809462
0.0827542
0.084296
0.0855637
0.0865515
0.0872558
0.0876755
0.0878125
0.0876713
0.0872598
0.0865893
0.0856748
0.0845353
0.0831942
0.0816794
0.0800243
0.0782678
0.0764547
0.0746367
0.0728719
0.0712258
0.0697698
0.068577
0.0677224
0.0672993
0.0673382
0.000503539
0.000465423
1.14972e-05
-0.000804401
-0.00189504
-0.00319713
-0.00464949
-0.00619204
-0.00776914
-0.00933077
-0.0108327
-0.0122362
-0.0135079
-0.0146196
-0.0155473
-0.0162715
-0.0167765
-0.0170498
-0.0170822
-0.0168674
-0.0164017
-0.0156837
-0.0147142
-0.0134961
-0.0120339
-0.0103341
-0.00840453
-0.00625436
-0.00389419
-0.00133579
0.00140801
0.00432338
0.00739555
0.0106089
0.0139472
0.0173933
0.0209295
0.0245377
0.0281993
0.0318952
0.035606
0.0393123
0.0429943
0.0466325
0.0502073
0.0536991
0.057089
0.0603582
0.0634885
0.0664624
0.0692632
0.0718751
0.0742833
0.0764743
0.078436
0.0801577
0.0816305
0.0828473
0.0838031
0.0844951
0.0849228
0.0850885
0.084997
0.0846565
0.0840779
0.0832761
0.0822692
0.0810796
0.0797338
0.0782627
0.0767021
0.0750929
0.0734809
0.0719171
0.0704574
0.0691611
0.0680876
0.0672969
0.0668745
0.066872
0.00153621
0.00135116
0.000827453
8.26567e-06
-0.00103975
-0.00226301
-0.00360977
-0.00502928
-0.00647394
-0.00790017
-0.00926882
-0.0105452
-0.0116989
-0.0127039
-0.0135381
-0.0141829
-0.0146234
-0.0148478
-0.0148469
-0.0146146
-0.0141469
-0.0134423
-0.0125011
-0.0113258
-0.0099204
-0.00829069
-0.00644385
-0.00438844
-0.0021343
0.000307603
0.00292521
0.00570549
0.00863455
0.0116976
0.0148793
0.0181633
0.0215331
0.0249712
0.02846
0.0319814
0.035517
0.0390483
0.0425566
0.0460233
0.0494296
0.0527572
0.055988
0.0591042
0.0620887
0.0649249
0.0675969
0.07009
0.0723903
0.074485
0.076363
0.0780143
0.0794307
0.0806057
0.081535
0.082216
0.0826488
0.0828356
0.0827817
0.0824946
0.0819853
0.0812678
0.0803593
0.0792809
0.0780572
0.0767167
0.075292
0.07382
0.0723413
0.0709006
0.0695459
0.0683277
0.0672966
0.0665039
0.0660178
0.0658822
0.00298469
0.0025732
0.00192168
0.0010496
-5.85136e-06
-0.0011998
-0.00248836
-0.00382922
-0.00518212
-0.00650959
-0.00777747
-0.00895507
-0.0100153
-0.0109344
-0.0116923
-0.0122719
-0.0126593
-0.0128432
-0.0128151
-0.0125691
-0.0121012
-0.0114098
-0.0104951
-0.00935916
-0.00800565
-0.00643981
-0.00466831
-0.00269911
-0.000541397
0.00179452
0.00429732
0.00695471
0.00975355
0.0126799
0.0157191
0.0188557
0.022074
0.0253575
0.0286894
0.0320523
0.035429
0.0388016
0.0421525
0.0454638
0.0487178
0.051897
0.0549842
0.0579625
0.0608156
0.0635278
0.0660842
0.0684706
0.070674
0.0726825
0.0744854
0.0760735
0.077439
0.0785762
0.0794809
0.0801509
0.0805865
0.08079
0.0807663
0.0805229
0.0800701
0.079421
0.0785918
0.0776019
0.076474
0.075234
0.0739113
0.0725387
0.071152
0.0697899
0.0684933
0.0673047
0.0662673
0.065425
0.0648187
0.064471
0.00474681
0.00405851
0.00323604
0.0022708
0.00116656
-3.95742e-05
-0.00131035
-0.00261106
-0.00390813
-0.00516974
-0.00636647
-0.0074716
-0.0084612
-0.00931426
-0.0100126
-0.0105407
-0.0108859
-0.0110379
-0.0109888
-0.010733
-0.0102668
-0.00958875
-0.00869884
-0.00759898
-0.00629258
-0.00478451
-0.00308099
-0.00118947
0.000881395
0.00312191
0.00552137
0.00806815
0.0107498
0.0135531
0.0164641
0.0194683
0.0225504
0.025695
0.0288859
0.0321067
0.0353407
0.0385712
0.0417811
0.0449535
0.0480714
0.0511182
0.0540774
0.0569329
0.0596692
0.0622713
0.0647249
0.0670168
0.0691344
0.0710664
0.0728027
0.0743347
0.075655
0.076758
0.07764
0.0782991
0.0787352
0.0789508
0.0789505
0.0787412
0.0783325
0.0777366
0.0769685
0.0760458
0.0749892
0.073822
0.0725703
0.0712632
0.0699318
0.0686094
0.0673305
0.0661305
0.0650463
0.0641148
0.0633456
0.0627348
0.00673184
0.00573855
0.00471535
0.00362534
0.00243843
0.00118514
-0.000102706
-0.0013971
-0.00267045
-0.00389606
-0.00504893
-0.00610608
-0.00704676
-0.00785251
-0.00850727
-0.00899729
-0.00931115
-0.00943963
-0.00937562
-0.00911401
-0.00865157
-0.00798684
-0.00712006
-0.006053
-0.0047889
-0.00333238
-0.00168931
0.000133252
0.00212713
0.00428311
0.00659105
0.00903991
0.0116178
0.0143123
0.0171099
0.0199969
0.0229588
0.0259806
0.0290471
0.0321425
0.035251
0.0383563
0.0414423
0.0444927
0.0474913
0.050422
0.0532692
0.0560174
0.0586518
0.061158
0.0635223
0.0657319
0.0677749
0.0696405
0.0713191
0.0728021
0.0740828
0.0751557
0.0760171
0.0766651
0.0770997
0.0773231
0.0773393
0.0771548
0.0767784
0.0762212
0.0754968
0.0746212
0.0736128
0.0724925
0.0712835
0.070011
0.068702
0.0673849
0.0660886
0.0648422
0.0636775
0.0626254
0.0616633
0.0607602
0.00886055
0.00754883
0.00630581
0.00506792
0.00377227
0.00244414
0.00111095
-0.000205091
-0.00148169
-0.00269676
-0.00382932
-0.00485991
-0.00577077
-0.00654598
-0.00717159
-0.0076356
-0.00792798
-0.00804063
-0.00796731
-0.00770355
-0.00724661
-0.00659533
-0.00575011
-0.00471275
-0.00348644
-0.0020756
-0.000485883
0.00127598
0.00320218
0.00528394
0.00751158
0.00987456
0.0123616
0.0149606
0.017659
0.0204434
0.0233001
0.0262147
0.0291725
0.0321586
0.0351576
0.0381541
0.0411323
0.0440768
0.0469719
0.0498023
0.0525528
0.0552085
0.0577551
0.0601788
0.0624664
0.0646055
0.0665847
0.0683935
0.0700225
0.0714636
0.0727101
0.0737565
0.0745994
0.0752366
0.075668
0.0758953
0.0759221
0.0757542
0.0753994
0.0748679
0.0741717
0.0733252
0.0723449
0.071249
0.070058
0.0687937
0.0674793
0.0661389
0.0647964
0.0634755
0.062204
0.0610079
0.0598332
0.0586232
0.011066
0.00943187
0.00795797
0.006556
0.00513219
0.00370774
0.00230666
0.000946195
-0.000356005
-0.00158192
-0.00271423
-0.00373668
-0.00463433
-0.0053937
-0.00600288
-0.00645161
-0.00673129
-0.00683498
-0.00675736
-0.00649472
-0.00604484
-0.00540697
-0.00458175
-0.00357111
-0.00237825
-0.00100753
0.000535595
0.00224461
0.00411201
0.00612936
0.00828738
0.010576
0.0129843
0.0155008
0.0181133
0.0208091
0.0235749
0.0263971
0.0292614
0.0321534
0.0350583
0.0379613
0.0408474
0.0437013
0.0465082
0.0492531
0.0519213
0.0544986
0.056971
0.0593251
0.0615481
0.063628
0.0655536
0.0673148
0.0689023
0.0703081
0.0715256
0.0725495
0.073376
0.074003
0.0744298
0.0746577
0.07469
0.0745314
0.074189
0.0736717
0.0729903
0.0721574
0.0711874
0.0700966
0.0689025
0.067624
0.066281
0.0648938
0.0634818
0.0620643
0.060666
0.0593091
0.05791
0.0563881
0.0132922
0.0113376
0.00962736
0.00805049
0.00648435
0.00494715
0.00346038
0.00203708
0.000690897
-0.000563736
-0.00171274
-0.00274281
-0.0036416
-0.00439789
-0.00500175
-0.00544461
-0.0057193
-0.00582004
-0.00574251
-0.00548376
-0.00504218
-0.00441747
-0.00361061
-0.00262371
-0.00146006
-0.000124013
0.00137907
0.00304282
0.00485998
0.00682239
0.00892109
0.0111463
0.0134877
0.015934
0.0184737
0.0210943
0.0237832
0.026527
0.0293123
0.0321249
0.0349507
0.0377752
0.0405839
0.0433621
0.0460954
0.0487692
0.0513692
0.0538816
0.0562928
0.0585897
0.0607599
0.0627915
0.0646735
0.066396
0.0679498
0.0693271
0.070521
0.0715263
0.0723389
0.0729564
0.0733778
0.073604
0.0736373
0.0734819
0.0731439
0.0726309
0.0719525
0.0711196
0.070145
0.0690425
0.0678275
0.0665161
0.0651252
0.0636717
0.0621717
0.0606404
0.0591003
0.057571
0.0559413
0.0541084
0.0154924
0.0132226
0.0112744
0.00951576
0.00779725
0.00613497
0.00454867
0.00304784
0.0016427
0.00034459
-0.000835291
-0.00188628
-0.00279839
-0.00356253
-0.00417063
-0.00461574
-0.00489205
-0.00499501
-0.00492124
-0.00466861
-0.00423616
-0.00362411
-0.00283378
-0.00186756
-0.000728876
0.000577861
0.00204731
0.00367321
0.00544845
0.0073651
0.00941445
0.0115871
0.0138728
0.016261
0.0187403
0.0212987
0.023924
0.0266034
0.0293236
0.0320711
0.034832
0.0375925
0.0403383
0.0430551
0.0457289
0.0483455
0.050891
0.0533518
0.0557145
0.0579663
0.060095
0.0620889
0.0639372
0.0656299
0.0671579
0.0685132
0.0696891
0.0706798
0.0714813
0.0720906
0.0725065
0.072729
0.07276
0.0726028
0.0722624
0.0717454
0.07106
0.0702157
0.0692234
0.0680953
0.0668443
0.0654843
0.0640296
0.0624942
0.0608913
0.0592329
0.0575401
0.0558307
0.0539677
0.0518283
0.0176272
0.0150491
0.0128638
0.0109195
0.00904179
0.00724537
0.0055489
0.00395896
0.00248285
0.00112924
-9.32087e-05
-0.00117617
-0.00211183
-0.00289302
-0.00351343
-0.00396761
-0.00425112
-0.00436053
-0.00429348
-0.00404862
-0.0036257
-0.00302545
-0.0022496
-0.00130086
-0.000182841
0.00109993
0.00254209
0.00413741
0.00587888
0.00775874
0.00976847
0.0118989
0.0141401
0.0164818
0.0189128
0.0214217
0.0239965
0.0266247
0.0292934
0.0319896
0.0346997
0.0374101
0.0401069
0.0427764
0.0454045
0.0479775
0.0504817
0.0529036
0.0552303
0.0574489
0.0595473
0.0615141
0.0633383
0.06501
0.06652
0.0678602
0.0690236
0.0700043
0.0707979
0.0714009
0.0718115
0.0720294
0.0720556
0.0718926
0.0715444
0.0710164
0.0703156
0.0694502
0.0684296
0.067264
0.0659645
0.064543
0.0630114
0.0613816
0.0596642
0.0578685
0.0560151
0.0541207
0.0520243
0.0495842
0.0196633
0.0167845
0.0143643
0.0122326
0.0101911
0.00825405
0.0064394
0.00475135
0.00319474
0.00177595
0.000501438
-0.000622565
-0.00159018
-0.00239603
-0.00303538
-0.00350426
-0.00379947
-0.00391872
-0.00386058
-0.00362456
-0.00321106
-0.00262137
-0.00185768
-0.000923022
0.000178746
0.00144295
0.00286414
0.00443609
0.00615183
0.0080037
0.00998334
0.0120817
0.0142893
0.0165957
0.0189904
0.0214621
0.023999
0.026589
0.0292196
0.0318778
0.0345507
0.0372247
0.0398863
0.0425219
0.0451178
0.0476605
0.0501363
0.0525321
0.0548348
0.0570319
0.0591113
0.0610613
0.0628711
0.0645306
0.0660306
0.0673626
0.0685195
0.0694951
0.0702843
0.0708834
0.07129
0.0715031
0.0715229
0.0713511
0.0709908
0.0704463
0.0697235
0.0688291
0.0677711
0.0665583
0.0652001
0.0637065
0.0620875
0.0603533
0.0585121
0.0565716
0.054552
0.0524696
0.050141
0.0474066
0.0215719
0.0184
0.015748
0.0134283
0.0112204
0.00913816
0.00719942
0.00540638
0.00376185
0.00227022
0.00093604
-0.000236299
-0.00124266
-0.00207929
-0.00274293
-0.00323095
-0.00354138
-0.00367296
-0.00362522
-0.00339845
-0.00299376
-0.002413
-0.00165881
-0.000734603
0.000355498
0.00160663
0.00301321
0.00456898
0.00626696
0.00809955
0.0100585
0.0121349
0.0143193
0.0166017
0.0189717
0.0214181
0.0239295
0.0264941
0.0290995
0.031733
0.0343819
0.0370329
0.0396727
0.0422878
0.0448648
0.0473901
0.0498504
0.0522325
0.0545234
0.0567105
0.0587818
0.0607255
0.0625307
0.0641871
0.0656851
0.0670163
0.0681729
0.0691485
0.0699375
0.0705358
0.0709401
0.0711489
0.0711617
0.0709793
0.0706039
0.0700387
0.0692885
0.0683588
0.0672563
0.0659884
0.0645632
0.0629889
0.0612741
0.0594274
0.0574554
0.0553643
0.0531745
0.0509025
0.0483435
0.0453212
0.023328
0.0198701
0.0169898
0.0144825
0.0121067
0.00987622
0.00780912
0.00590595
0.00416779
0.00259738
0.00119759
-2.88179e-05
-0.00107926
-0.00195146
-0.00264352
-0.00315406
-0.00348223
-0.0036278
-0.0035912
-0.0033735
-0.00297647
-0.00240256
-0.00165488
-0.000737212
0.000346008
0.0015897
0.00298813
0.00453493
0.00622311
0.00804506
0.00999258
0.0120569
0.0142286
0.016498
0.0188546
0.0212877
0.0237858
0.0263374
0.0289303
0.0315522
0.0341901
0.0368313
0.0394624
0.0420702
0.0446412
0.0471621
0.0496195
0.0520003
0.0542914
0.0564802
0.0585544
0.0605024
0.0623128
0.0639752
0.0654798
0.0668176
0.0679806
0.0689619
0.0697555
0.0703564
0.0707611
0.0709671
0.0709731
0.0707793
0.0703868
0.069798
0.0690164
0.0680466
0.066894
0.0655649
0.0640658
0.0624041
0.0605868
0.0586213
0.056513
0.0542669
0.0519041
0.0494415
0.0466541
0.0433495
0.0249096
0.0211721
0.0180667
0.0153728
0.0128284
0.0104479
0.00824943
0.0062324
0.00439638
0.00274269
0.00127277
-1.20741e-05
-0.00111065
-0.002022
-0.0027455
-0.0032809
-0.00362845
-0.00378886
-0.00376342
-0.00355397
-0.00316294
-0.00259334
-0.00184879
-0.000933455
0.000147908
0.00138997
0.00278681
0.00433195
0.00601831
0.00783827
0.00978364
0.0118457
0.0140151
0.0162823
0.0186368
0.0210682
0.0235651
0.026116
0.0287091
0.0313319
0.0339719
0.0366162
0.0392517
0.0418652
0.0444432
0.0469725
0.0494396
0.0518313
0.0541346
0.0563367
0.0584252
0.060388
0.0622137
0.0638915
0.0654113
0.0667637
0.0679403
0.0689335
0.0697368
0.0703449
0.0707532
0.0709586
0.0709592
0.0707541
0.0703437
0.0697294
0.0689139
0.0679004
0.0666935
0.0652983
0.0637204
0.0619658
0.0600407
0.0579515
0.0557027
0.0532982
0.0507602
0.0481065
0.0450926
0.0415103
0.0262967
0.0222851
0.0189578
0.0160786
0.0133656
0.0108338
0.00850203
0.0063685
0.00443158
0.00269135
0.00114799
-0.000198451
-0.00134805
-0.00230106
-0.00305799
-0.00361968
-0.00398737
-0.00416269
-0.00414774
-0.00394511
-0.00355787
-0.00298961
-0.00224441
-0.00132687
-0.000242072
0.00100438
0.00240637
0.00395725
0.00564985
0.00747649
0.00942895
0.0114985
0.013676
0.0159516
0.0183154
0.0207565
0.0232641
0.0258266
0.0284322
0.0310687
0.0337235
0.0363839
0.0390367
0.0416688
0.0442667
0.0468171
0.0493066
0.0517217
0.0540493
0.0562764
0.0583903
0.0603789
0.0622302
0.0639333
0.0654773
0.0668527
0.0680504
0.0690623
0.0698813
0.0705014
0.0709174
0.0711254
0.0711227
0.0709075
0.0704795
0.069839
0.0689879
0.0679286
0.0666644
0.0651997
0.063539
0.0616874
0.0596506
0.0574338
0.0550409
0.0524756
0.0497607
0.0469154
0.0436762
0.0398199
0.0274713
0.0231902
0.0196437
0.0165803
0.013699
0.0110155
0.00854915
0.0062974
0.00425749
0.00242849
0.000809449
-0.000600721
-0.00180322
-0.0027994
-0.00359084
-0.00417938
-0.00456717
-0.00475672
-0.00475093
-0.00455308
-0.0041669
-0.00359651
-0.0028465
-0.00192187
-0.000828053
0.000429053
0.0018431
0.00340728
0.00511429
0.00695634
0.00892519
0.0110121
0.0132078
0.0155028
0.0178868
0.0203493
0.0228793
0.0254655
0.028096
0.0307587
0.0334411
0.0361304
0.0388134
0.041477
0.0441078
0.0466921
0.0492165
0.0516675
0.0540316
0.0562956
0.0584467
0.0604721
0.0623597
0.064098
0.0656759
0.0670831
0.06831
0.069348
0.0701893
0.0708271
0.0712557
0.0714703
0.0714672
0.0712442
0.0707997
0.0701335
0.0692464
0.0681399
0.0668168
0.0652801
0.0635339
0.0615825
0.0594306
0.0570833
0.0545438
0.0518153
0.0489221
0.0458847
0.042421
0.0382929
0.0284163
0.0238694
0.0201061
0.0168597
0.0138105
0.010975
0.00837348
0.00600246
0.00385831
0.00193916
0.000243086
-0.00123202
-0.0024884
-0.00352839
-0.00435456
-0.00496968
-0.00537678
-0.0055792
-0.00558058
-0.0053849
-0.00499649
-0.00442005
-0.00366064
-0.00272367
-0.00161495
-0.000340669
0.00109258
0.00267778
0.00440748
0.0062738
0.00826839
0.0103825
0.0126068
0.0149317
0.0173471
0.0198425
0.0224068
0.0250288
0.0276965
0.030398
0.0331206
0.0358516
0.0385778
0.0412859
0.0439623
0.0465935
0.0491657
0.0516651
0.0540781
0.0563912
0.0585911
0.0606649
0.0625998
0.0643838
0.0660055
0.0674539
0.0687188
0.069791
0.0706618
0.0713239
0.0717706
0.0719965
0.0719972
0.0717694
0.0713107
0.0706202
0.0696976
0.068544
0.067161
0.0655511
0.0637176
0.0616641
0.0593951
0.0569149
0.0542265
0.051333
0.0482602
0.0450298
0.0413416
0.0369426
0.0291156
0.0243057
0.0203273
0.0168989
0.0136824
0.010695
0.00795804
0.00546727
0.00321825
0.00120829
-0.000565394
-0.00210586
-0.00341627
-0.00449991
-0.00536025
-0.00600095
-0.00642586
-0.0066391
-0.00664504
-0.00644833
-0.00605391
-0.00546702
-0.00469319
-0.00373827
-0.00260843
-0.00131017
0.00014965
0.0017638
0.00352467
0.00542422
0.00745401
0.00960518
0.0118685
0.0142341
0.0166921
0.0192318
0.0218422
0.024512
0.0272294
0.0299821
0.0327577
0.0355432
0.0383255
0.0410911
0.0438264
0.0465174
0.0491502
0.0517109
0.0541855
0.0565601
0.058821
0.0609549
0.0629485
0.0647894
0.0664653
0.0679648
0.0692771
0.070392
0.0713004
0.071994
0.0724654
0.0727084
0.0727176
0.072489
0.0720194
0.0713069
0.0703507
0.0691507
0.067708
0.0660245
0.0641027
0.0619459
0.0595579
0.0569431
0.0541041
0.0510439
0.0477898
0.0443652
0.0404518
0.0357818
0.0295538
0.0244827
0.0202904
0.0166808
0.0132974
0.0101584
0.00728603
0.00467544
0.00232146
0.000220663
-0.00163056
-0.00323609
-0.00459998
-0.00572638
-0.00661962
-0.00728418
-0.00772472
-0.0079461
-0.0079534
-0.0077519
-0.00734716
-0.00674493
-0.00595125
-0.00497238
-0.00381486
-0.00248552
-0.00099149
0.000659767
0.00246044
0.00440235
0.00647694
0.00867524
0.0109879
0.0134052
0.0159169
0.0185124
0.0211807
0.0239105
0.0266898
0.0295065
0.0323478
0.0352009
0.0380523
0.0408885
0.0436957
0.0464597
0.0491664
0.0518014
0.0543505
0.0567993
0.0591338
0.06134
0.0634043
0.0653134
0.0670547
0.0686159
0.0699855
0.0711526
0.0721074
0.0728406
0.073344
0.0736106
0.0736342
0.0734097
0.0729334
0.0722023
0.0712149
0.0699703
0.068469
0.0667123
0.0647021
0.0624413
0.0599335
0.0571826
0.0541913
0.0509627
0.0475257
0.0439054
0.0397651
0.0348224
0.0297155
0.0243841
0.0199787
0.0161884
0.0126386
0.00934823
0.00634068
0.00361056
0.00115198
-0.00103919
-0.00296727
-0.00463697
-0.00605312
-0.00722073
-0.00814493
-0.00883099
-0.00928434
-0.00951056
-0.00951541
-0.00930482
-0.00888492
-0.00826201
-0.00744259
-0.00643337
-0.00524126
-0.00387342
-0.00233727
-0.000640513
0.00120884
0.00320242
0.00533155
0.00758713
0.00995973
0.0124395
0.0150162
0.0176792
0.0204174
0.0232193
0.026073
0.0289662
0.0318862
0.0348198
0.0377535
0.0406737
0.0435661
0.0464165
0.0492104
0.0519331
0.0545699
0.0571061
0.059527
0.0618183
0.0639656
0.0659551
0.0677734
0.0694075
0.0708452
0.0720748
0.0730854
0.0738671
0.0744108
0.0747085
0.0747531
0.0745388
0.0740608
0.0733154
0.0723003
0.0710139
0.069456
0.0676273
0.0655292
0.0631644
0.060536
0.0576481
0.0545031
0.0511043
0.0474825
0.0436643
0.0392948
0.0340766
0.0295856
0.0239939
0.0193756
0.0154048
0.0116887
0.00824745
0.00510518
0.00225608
-0.000306397
-0.002587
-0.00459077
-0.00632315
-0.00778977
-0.00899641
-0.00994899
-0.0106536
-0.0111163
-0.0113434
-0.0113415
-0.0111169
-0.0106765
-0.0100271
-0.00917564
-0.00812926
-0.00689527
-0.00548118
-0.0038947
-0.00214378
-0.000236661
0.00181812
0.0040117
0.00633488
0.0087781
0.0113314
0.0139845
0.0167266
0.0195467
0.022433
0.0253737
0.0283562
0.0313678
0.0343951
0.0374245
0.040442
0.0434333
0.0463837
0.0492785
0.0521025
0.0548406
0.0574777
0.0599985
0.062388
0.0646313
0.0667139
0.0686216
0.0703406
0.0718578
0.0731608
0.0742377
0.0750777
0.0756708
0.076008
0.0760813
0.075884
0.0754104
0.074656
0.0736176
0.072293
0.0706812
0.0687825
0.0665978
0.0641294
0.0613803
0.0583545
0.0550546
0.0514839
0.047675
0.0436563
0.0390544
0.0335565
0.0291486
0.0232961
0.0184644
0.0143131
0.0104309
0.00683894
0.00356249
0.000595185
-0.00207014
-0.00443885
-0.00651666
-0.00830973
-0.00982445
-0.0110674
-0.0120452
-0.0127646
-0.0132327
-0.0134563
-0.0134426
-0.0131987
-0.012732
-0.0120497
-0.0111594
-0.0100686
-0.00878511
-0.00731666
-0.00567131
-0.00385728
-0.00188305
0.000242666
0.00251083
0.00491209
0.00743677
0.0100748
0.0128158
0.0156489
0.0185629
0.021546
0.0245863
0.0276711
0.0307873
0.0339217
0.0370603
0.0401888
0.0432927
0.0463571
0.0493667
0.052306
0.0551595
0.0579114
0.060546
0.0630475
0.0654004
0.0675894
0.0695995
0.0714161
0.0730252
0.0744134
0.0755679
0.076477
0.0771295
0.0775156
0.0776263
0.0774539
0.0769917
0.0762345
0.0751781
0.0738197
0.0721577
0.0701916
0.0679221
0.0653511
0.0624816
0.0593175
0.0558614
0.0521168
0.0481183
0.043896
0.0390576
0.0332747
0.028389
0.0222742
0.0172283
0.012896
0.00884767
0.00510532
0.0016953
-0.00138926
-0.00415612
-0.00661124
-0.00876101
-0.0106123
-0.0121722
-0.0134481
-0.0144474
-0.0151776
-0.0156464
-0.0158614
-0.0158304
-0.0155612
-0.0150618
-0.0143398
-0.0134035
-0.0122606
-0.0109195
-0.00938822
-0.00767513
-0.00578875
-0.00373777
-0.00153114
0.00082194
0.00331196
0.00592912
0.00866323
0.0115038
0.0144398
0.0174599
0.0205525
0.0237051
0.0269051
0.0301394
0.0333943
0.0366557
0.0399092
0.0431399
0.0463324
0.0494711
0.0525402
0.0555235
0.0584047
0.0611674
0.0637953
0.066272
0.0685814
0.0707077
0.0726354
0.0743496
0.0758357
0.0770801
0.0780699
0.078793
0.0792384
0.0793961
0.0792574
0.0788148
0.0780619
0.0769938
0.0756069
0.073899
0.071869
0.0695173
0.0668453
0.0638559
0.0605531
0.0569396
0.0530191
0.0488281
0.0443986
0.0393188
0.0332445
0.0272907
0.0209114
0.01565
0.0111361
0.00692132
0.0030288
-0.000514138
-0.00371482
-0.00658163
-0.00912114
-0.0113404
-0.0132469
-0.0148487
-0.0161537
-0.0171701
-0.0179063
-0.0183706
-0.0185714
-0.0185171
-0.0182161
-0.0176769
-0.016908
-0.0159179
-0.0147149
-0.0133076
-0.0117047
-0.00991461
-0.0079463
-0.00580867
-0.00351087
-0.0010623
0.00152738
0.0042482
0.00708989
0.0100418
0.0130928
0.0162316
0.0194461
0.022724
0.0260525
0.0294183
0.0328074
0.0362057
0.0395983
0.04297
0.0463051
0.0495877
0.0528013
0.0559293
0.0589548
0.0618607
0.0646299
0.0672453
0.0696899
0.071947
0.0740002
0.0758334
0.0774311
0.0787786
0.0798619
0.0806677
0.0811839
0.0813994
0.0813044
0.0808903
0.0801499
0.0790774
0.0776683
0.0759197
0.07383
0.0713991
0.0686281
0.0655198
0.0620783
0.0583062
0.0542076
0.0498209
0.0451802
0.0398534
0.03348
0.0258371
0.0191905
0.0137118
0.00901519
0.00463365
0.000591085
-0.00308404
-0.00639958
-0.00936453
-0.0119861
-0.0142719
-0.0162304
-0.01787
-0.0191997
-0.0202285
-0.0209653
-0.0214193
-0.0215996
-0.0215152
-0.0211754
-0.0205891
-0.0197654
-0.0187132
-0.0174414
-0.0159591
-0.0142752
-0.0123986
-0.0103384
-0.00810391
-0.00570442
-0.00314954
-0.000449085
0.00238683
0.00534778
0.008423
0.0116013
0.0148712
0.0182206
0.0216369
0.0251073
0.0286182
0.0321555
0.0357047
0.0392508
0.0427782
0.0462709
0.0497123
0.0530857
0.0563738
0.0595591
0.0626238
0.0655499
0.0683197
0.0709151
0.0733184
0.0755123
0.0774795
0.0792036
0.0806684
0.0818589
0.0827605
0.0833601
0.0836453
0.0836051
0.0832298
0.0825112
0.0814425
0.0800184
0.0782352
0.0760907
0.0735843
0.0707169
0.0674911
0.0639109
0.0599791
0.0557001
0.0511143
0.0462577
0.0406775
0.0339963
0.0240108
0.0170935
0.0113953
0.00651476
0.00196581
-0.00222671
-0.00603327
-0.00946224
-0.0125233
-0.0152242
-0.0175733
-0.0195798
-0.021253
-0.0226025
-0.023638
-0.0243695
-0.0248068
-0.0249598
-0.0248381
-0.0244518
-0.0238103
-0.0229233
-0.0218003
-0.0204507
-0.018884
-0.0171093
-0.0151362
-0.0129739
-0.0106319
-0.00811993
-0.00544764
-0.00262505
0.00033757
0.00342969
0.00664041
0.00995846
0.0133722
0.0168693
0.0204374
0.0240632
0.027733
0.0314326
0.0351472
0.0388615
0.0425596
0.046225
0.0498408
0.0533897
0.0568538
0.0602149
0.0634545
0.066554
0.0694944
0.072257
0.0748229
0.0771736
0.0792909
0.081157
0.0827545
0.0840671
0.0850791
0.0857758
0.0861437
0.0861705
0.0858454
0.085159
0.0841034
0.0826724
0.0808616
0.078668
0.0760906
0.0731299
0.0697884
0.06607
0.0619775
0.0575157
0.052727
0.0476493
0.0418086
0.0348098
0.0217938
0.0146018
0.00868133
0.00361537
-0.00110176
-0.0054442
-0.00938139
-0.0129222
-0.016077
-0.0188543
-0.0212631
-0.0233132
-0.025015
-0.0263787
-0.0274151
-0.0281347
-0.0285482
-0.0286663
-0.0284995
-0.0280582
-0.0273529
-0.0263936
-0.0251905
-0.0237535
-0.0220923
-0.0202169
-0.0181367
-0.0158617
-0.0134014
-0.0107657
-0.00796463
-0.0050083
-0.00190712
0.00132826
0.00468682
0.0081572
0.0117276
0.0153858
0.019119
0.0229139
0.0267566
0.0306329
0.0345275
0.038425
0.0423089
0.0461627
0.0499688
0.0537093
0.0573658
0.0609194
0.0643509
0.0676406
0.0707689
0.0737159
0.0764616
0.0789864
0.0812708
0.0832957
0.0850425
0.0864934
0.0876313
0.0884401
0.088905
0.0890124
0.08875
0.0881073
0.0870753
0.0856468
0.0838163
0.0815803
0.0789371
0.0758869
0.0724318
0.0685757
0.0643217
0.0596745
0.0546789
0.0493747
0.0432655
0.0359384
0.0191673
0.0116958
0.00554999
0.000296768
-0.00458944
-0.00908184
-0.0131488
-0.0167997
-0.0200458
-0.022896
-0.0253603
-0.0274493
-0.0291741
-0.030546
-0.0315764
-0.0322768
-0.0326589
-0.0327339
-0.0325133
-0.0320082
-0.0312297
-0.0301885
-0.0288954
-0.0273607
-0.0255948
-0.0236078
-0.0214098
-0.0190109
-0.016421
-0.0136502
-0.0107086
-0.00760667
-0.00435483
-0.000963892
0.00255506
0.00619055
0.0099307
0.0137632
0.0176751
0.021653
0.025683
0.0297504
0.0338399
0.0379357
0.0420212
0.0460792
0.0500918
0.0540406
0.0579064
0.0616698
0.0653106
0.0688085
0.0721427
0.0752921
0.0782359
0.080953
0.0834226
0.0856244
0.0875382
0.0891447
0.0904255
0.0913628
0.0919404
0.0921431
0.0919574
0.0913713
0.0903746
0.0889589
0.0871178
0.0848469
0.082144
0.0790085
0.0754426
0.07145
0.0670337
0.0621986
0.0569917
0.051455
0.0450688
0.0374014
0.0161112
0.00835503
0.00198033
-0.00346223
-0.0085186
-0.013161
-0.0173568
-0.0211159
-0.0244503
-0.0273698
-0.029885
-0.0320075
-0.0337493
-0.0351225
-0.0361395
-0.0368129
-0.0371549
-0.037178
-0.0368942
-0.0363156
-0.0354538
-0.0343204
-0.0329266
-0.0312835
-0.0294018
-0.0272922
-0.024965
-0.0224307
-0.0196995
-0.0167817
-0.0136877
-0.010428
-0.00701314
-0.00345411
0.000237957
0.00405151
0.00797461
0.0119948
0.0160992
0.0202742
0.0245058
0.0287791
0.0330786
0.0373883
0.0416912
0.0459697
0.0502055
0.0543796
0.0584723
0.0624633
0.0663317
0.0700562
0.073615
0.076986
0.080147
0.0830757
0.08575
0.0881478
0.0902476
0.0920286
0.0934705
0.0945542
0.0952616
0.0955759
0.0954822
0.0949669
0.0940185
0.0926273
0.0907858
0.0884887
0.0857328
0.0825174
0.0788439
0.0747161
0.0701368
0.0651113
0.0596887
0.0539131
0.0472406
0.03922
0.0126046
0.00455788
-0.00204965
-0.00768391
-0.0129117
-0.0177042
-0.0220277
-0.0258929
-0.0293125
-0.032297
-0.0348581
-0.0370081
-0.03876
-0.040127
-0.0411225
-0.04176
-0.0420528
-0.0420141
-0.041657
-0.0409944
-0.0400386
-0.0388019
-0.0372962
-0.0355332
-0.0335241
-0.03128
-0.0288118
-0.0261301
-0.0232455
-0.0201686
-0.0169098
-0.0134799
-0.00988945
-0.00614958
-0.00227148
0.00173327
0.00585266
0.0100742
0.014385
0.0187713
0.023219
0.027713
0.0322379
0.0367771
0.0413136
0.0458292
0.0503053
0.0547223
0.0590598
0.0632969
0.0674118
0.0713823
0.0751854
0.078798
0.0821965
0.0853572
0.0882566
0.090871
0.0931773
0.0951529
0.0967759
0.0980251
0.0988809
0.0993248
0.0993399
0.0989112
0.0980255
0.0966718
0.0948414
0.0925277
0.0897269
0.0864374
0.0826603
0.0783992
0.0736567
0.0684382
0.0627952
0.0567739
0.0498052
0.0414175
0.00862556
0.000281596
-0.00656319
-0.0123918
-0.0177923
-0.022735
-0.0271851
-0.031154
-0.0346552
-0.0377001
-0.0403013
-0.0424722
-0.0442267
-0.0455793
-0.0465443
-0.0471362
-0.0473696
-0.0472585
-0.0468171
-0.046059
-0.0449975
-0.0436457
-0.0420161
-0.040121
-0.0379722
-0.0355813
-0.0329596
-0.0301181
-0.0270675
-0.0238188
-0.0203827
-0.0167697
-0.0129909
-0.00905722
-0.00497998
-0.000770762
0.00355841
0.00799507
0.0125262
0.0171381
0.0218166
0.0265465
0.0313122
0.0360969
0.0408833
0.045653
0.0503868
0.0550646
0.0596655
0.0641678
0.0685488
0.0727853
0.0768533
0.0807284
0.0843857
0.0878001
0.0909464
0.0937993
0.096334
0.0985259
0.100351
0.101787
0.102812
0.103405
0.103547
0.103222
0.102415
0.101114
0.0993071
0.096988
0.0941513
0.0907946
0.0869186
0.0825265
0.0776208
0.0722069
0.0663386
0.0600645
0.0527889
0.0440192
0.00415055
-0.00449788
-0.0115848
-0.0176107
-0.0231855
-0.0282785
-0.0328539
-0.0369238
-0.0405025
-0.0436026
-0.0462376
-0.0484219
-0.0501708
-0.0514996
-0.0524241
-0.05296
-0.0531227
-0.0529276
-0.0523898
-0.051524
-0.0503443
-0.0488645
-0.0470982
-0.045058
-0.0427565
-0.0402058
-0.0374175
-0.0344031
-0.0311736
-0.0277402
-0.0241135
-0.0203045
-0.0163242
-0.0121836
-0.00789387
-0.00346676
0.00108581
0.00575139
0.010517
0.015369
0.020293
0.025274
0.0302961
0.0353424
0.0403953
0.0454363
0.0504456
0.0554027
0.060286
0.065073
0.0697404
0.0742637
0.0786181
0.0827777
0.0867162
0.0904071
0.0938235
0.0969383
0.0997247
0.102156
0.104207
0.105852
0.107068
0.107831
0.108121
0.107919
0.107209
0.105976
0.104207
0.101895
0.0990326
0.0956168
0.0916474
0.0871274
0.0820589
0.0764473
0.0703489
0.0638145
0.0562207
0.0470528
-0.000845114
-0.00980606
-0.0171406
-0.0233669
-0.0291176
-0.0343611
-0.0390603
-0.0432281
-0.04688
-0.0500294
-0.052691
-0.0548805
-0.0566143
-0.0579093
-0.0587823
-0.0592503
-0.0593301
-0.0590383
-0.058391
-0.0574039
-0.0560924
-0.0544711
-0.0525541
-0.0503551
-0.0478871
-0.0451628
-0.0421943
-0.0389933
-0.0355714
-0.0319396
-0.0281091
-0.0240908
-0.0198955
-0.0155345
-0.0110189
-0.00636036
-0.00157068
0.00333773
0.00835196
0.0134584
0.0186429
0.0238902
0.0291844
0.0345086
0.0398449
0.0451745
0.0504774
0.0557325
0.0609177
0.0660097
0.0709843
0.0758162
0.0804792
0.0849463
0.0891897
0.0931812
0.0968921
0.100294
0.103357
0.106053
0.108354
0.110233
0.111663
0.11262
0.11308
0.113023
0.112429
0.111282
0.109568
0.107276
0.1044
0.100934
0.096878
0.0922338
0.0870033
0.0811919
0.0748584
0.0680559
0.060132
0.0505488
-0.00638768
-0.01567
-0.0232581
-0.0296885
-0.035617
-0.0410109
-0.0458321
-0.0500944
-0.0538143
-0.0570065
-0.0596867