/*--------------------------------*- C++ -*----------------------------------*\
  =========                 |
  \\      /  F ield         | OpenFOAM: The Open Source CFD Toolbox
   \\    /   O peration     | Website:  https://openfoam.org
    \\  /    A nd           | Version:  7
     \\/     M anipulation  |
\*---------------------------------------------------------------------------*/
FoamFile
{
    version     2.0;
    format      ascii;
    class       surfaceScalarField;
    location    "0.3";
    object      phi;
}
// * * * * * * * * * * * * * * * * * * * * * * * * * * * * * * * * * * * * * //

dimensions      [0 3 -1 0 0 0 0];

internalField   nonuniform List<scalar> 
12640
(
1.8909e-10
-1.91937e-10
5.55562e-10
-3.66443e-10
8.82844e-10
-3.27272e-10
1.04581e-09
-1.6297e-10
9.82385e-10
6.34342e-11
6.65479e-10
3.16915e-10
8.8224e-11
5.77262e-10
-7.44276e-10
8.32501e-10
-1.81982e-09
1.07554e-09
-3.12193e-09
1.30211e-09
-4.63163e-09
1.50969e-09
-6.32845e-09
1.69681e-09
-8.19115e-09
1.8627e-09
-1.01982e-08
2.00706e-09
-1.23281e-08
2.1299e-09
-1.45596e-08
2.23148e-09
-1.68718e-08
2.31219e-09
-1.92443e-08
2.37257e-09
-2.16575e-08
2.41323e-09
-2.40924e-08
2.43485e-09
-2.65306e-08
2.43816e-09
-2.89545e-08
2.42392e-09
-3.13474e-08
2.3929e-09
-3.36933e-08
2.34592e-09
-3.59771e-08
2.28379e-09
-3.81844e-08
2.20734e-09
-4.03018e-08
2.1174e-09
-4.23166e-08
2.0148e-09
-4.4217e-08
1.90039e-09
-4.5992e-08
1.77501e-09
-4.76315e-08
1.6395e-09
-4.91262e-08
1.49473e-09
-5.04677e-08
1.34155e-09
-5.16486e-08
1.18084e-09
-5.2662e-08
1.01346e-09
-5.35023e-08
8.40307e-10
-5.41646e-08
6.62285e-10
-5.46449e-08
4.80305e-10
-5.49402e-08
2.953e-10
-5.50485e-08
1.08217e-10
-5.49685e-08
-7.99819e-11
-5.47002e-08
-2.68312e-10
-5.42444e-08
-4.55775e-10
-5.3603e-08
-6.41349e-10
-5.2779e-08
-8.24002e-10
-5.17763e-08
-1.00268e-09
-5.06e-08
-1.17632e-09
-4.92562e-08
-1.34384e-09
-4.7752e-08
-1.50416e-09
-4.60959e-08
-1.65618e-09
-4.42971e-08
-1.79881e-09
-4.23661e-08
-1.93096e-09
-4.03146e-08
-2.05155e-09
-3.81551e-08
-2.15951e-09
-3.59013e-08
-2.25379e-09
-3.35679e-08
-2.33337e-09
-3.11707e-08
-2.39726e-09
-2.87262e-08
-2.44451e-09
-2.62519e-08
-2.47424e-09
-2.37663e-08
-2.48559e-09
-2.12885e-08
-2.47779e-09
-1.88384e-08
-2.45017e-09
-1.64363e-08
-2.4021e-09
-1.41032e-08
-2.3331e-09
-1.18604e-08
-2.24278e-09
-9.7295e-09
-2.13091e-09
-7.73208e-09
-1.99742e-09
-5.88962e-09
-1.84246e-09
-4.22318e-09
-1.66643e-09
-2.75305e-09
-1.47013e-09
-1.49826e-09
-1.2548e-09
-4.75821e-10
-1.02244e-09
3.00286e-10
-7.76095e-10
8.20846e-10
-5.20529e-10
1.08421e-09
-2.6334e-10
1.10107e-09
-1.68917e-11
9.02516e-10
1.98496e-10
5.54364e-10
3.48156e-10
1.83857e-10
3.70625e-10
1.83982e-10
3.65403e-10
-5.57309e-10
8.86123e-10
-8.87145e-10
1.21699e-09
-6.58142e-10
1.135e-09
-8.09747e-11
5.02525e-10
6.95919e-10
-7.54248e-10
1.57369e-09
-2.66448e-09
2.4875e-09
-5.22711e-09
3.39512e-09
-8.42068e-09
4.26911e-09
-1.22102e-08
5.09159e-09
-1.65515e-08
5.85101e-09
-2.13947e-08
6.54e-09
-2.66861e-08
7.15414e-09
-3.23701e-08
7.69101e-09
-3.83898e-08
8.14965e-09
-4.46885e-08
8.53016e-09
-5.12097e-08
8.83341e-09
-5.7898e-08
9.06085e-09
-6.46991e-08
9.21436e-09
-7.15604e-08
9.29616e-09
-7.8431e-08
9.30872e-09
-8.52617e-08
9.25471e-09
-9.20058e-08
9.13691e-09
-9.86181e-08
8.95826e-09
-1.05056e-07
8.72175e-09
-1.11279e-07
8.43045e-09
-1.17249e-07
8.08746e-09
-1.2293e-07
7.69594e-09
-1.28289e-07
7.25909e-09
-1.33294e-07
6.78012e-09
-1.37917e-07
6.26229e-09
-1.42131e-07
5.70887e-09
-1.45913e-07
5.12317e-09
-1.4924e-07
4.50856e-09
-1.52095e-07
3.86841e-09
-1.54461e-07
3.20617e-09
-1.56324e-07
2.52532e-09
-1.57673e-07
1.82939e-09
-1.585e-07
1.12199e-09
-1.58799e-07
4.06775e-10
-1.58566e-07
-3.12536e-10
-1.57802e-07
-1.03215e-09
-1.5651e-07
-1.74823e-09
-1.54694e-07
-2.45685e-09
-1.52364e-07
-3.15403e-09
-1.49531e-07
-3.83576e-09
-1.46209e-07
-4.49796e-09
-1.42417e-07
-5.13652e-09
-1.38174e-07
-5.7473e-09
-1.33504e-07
-6.32616e-09
-1.28433e-07
-6.86895e-09
-1.22993e-07
-7.37155e-09
-1.17215e-07
-7.82989e-09
-1.11134e-07
-8.23995e-09
-1.0479e-07
-8.59781e-09
-9.82239e-08
-8.89967e-09
-9.14793e-08
-9.14186e-09
-8.46029e-08
-9.32091e-09
-7.76436e-08
-9.43354e-09
-7.06525e-08
-9.47673e-09
-6.36825e-08
-9.44774e-09
-5.67885e-08
-9.34418e-09
-5.00266e-08
-9.16403e-09
-4.3454e-08
-8.90573e-09
-3.71285e-08
-8.56824e-09
-3.11083e-08
-8.15117e-09
-2.54508e-08
-7.65487e-09
-2.02126e-08
-7.08064e-09
-1.54481e-08
-6.43096e-09
-1.12083e-08
-5.70989e-09
-7.53956e-09
-4.92357e-09
-4.48089e-09
-4.0811e-09
-2.06123e-09
-3.19573e-09
-2.94809e-10
-2.28693e-09
8.25338e-10
-1.38347e-09
1.33684e-09
-5.2842e-10
1.32173e-09
2.13523e-10
9.24311e-10
7.45448e-10
3.70469e-10
9.24344e-10
5.54543e-10
3.30019e-10
-8.87322e-10
6.65911e-10
-1.22304e-09
6.12917e-10
-6.05154e-10
-8.99427e-11
6.2189e-10
-1.61351e-09
2.2195e-09
-4.057e-09
4.01719e-09
-7.46481e-09
5.89531e-09
-1.18409e-08
7.77122e-09
-1.71599e-08
9.58813e-09
-2.33755e-08
1.13071e-08
-3.04263e-08
1.29018e-08
-3.82407e-08
1.43544e-08
-4.67403e-08
1.56537e-08
-5.58421e-08
1.67929e-08
-6.54608e-08
1.77683e-08
-7.55098e-08
1.85792e-08
-8.59026e-08
1.92262e-08
-9.65535e-08
1.97118e-08
-1.07378e-07
2.00392e-08
-1.18295e-07
2.02128e-08
-1.29224e-07
2.02373e-08
-1.40087e-07
2.01182e-08
-1.50812e-07
1.98613e-08
-1.61326e-07
1.94725e-08
-1.71562e-07
1.89582e-08
-1.81457e-07
1.8325e-08
-1.90949e-07
1.75794e-08
-1.99981e-07
1.67282e-08
-2.085e-07
1.57783e-08
-2.16457e-07
1.47367e-08
-2.23805e-07
1.36105e-08
-2.30503e-07
1.24067e-08
-2.36512e-07
1.11327e-08
-2.41799e-07
9.79565e-09
-2.46334e-07
8.40308e-09
-2.5009e-07
6.96248e-09
-2.53046e-07
5.48147e-09
-2.55185e-07
3.9678e-09
-2.56492e-07
2.42934e-09
-2.5696e-07
8.74108e-10
-2.56582e-07
-6.89774e-10
-2.5536e-07
-2.25403e-09
-2.53298e-07
-3.81026e-09
-2.50405e-07
-5.34993e-09
-2.46695e-07
-6.86439e-09
-2.42186e-07
-8.34488e-09
-2.36901e-07
-9.78256e-09
-2.30869e-07
-1.11685e-08
-2.24123e-07
-1.24938e-08
-2.16699e-07
-1.37495e-08
-2.08642e-07
-1.49265e-08
-1.99997e-07
-1.60162e-08
-1.90818e-07
-1.70096e-08
-1.81159e-07
-1.78982e-08
-1.71083e-07
-1.86737e-08
-1.60655e-07
-1.93278e-08
-1.49944e-07
-1.9853e-08
-1.39023e-07
-2.02417e-08
-1.2797e-07
-2.04872e-08
-1.16863e-07
-2.05832e-08
-1.05787e-07
-2.05241e-08
-9.48259e-08
-2.03051e-08
-8.40678e-08
-1.99222e-08
-7.36008e-08
-1.93727e-08
-6.35142e-08
-1.86549e-08
-5.38968e-08
-1.77686e-08
-4.4836e-08
-1.67157e-08
-3.64168e-08
-1.54998e-08
-2.87201e-08
-1.41276e-08
-2.18207e-08
-1.26093e-08
-1.57846e-08
-1.09596e-08
-1.06661e-08
-9.19965e-09
-6.5027e-09
-7.35911e-09
-3.30975e-09
-5.47986e-09
-1.07219e-09
-3.62104e-09
2.65872e-10
-1.86648e-09
8.14669e-10
-3.35198e-10
7.54185e-10
8.06053e-10
3.50867e-10
1.32758e-09
9.05406e-10
1.7168e-10
-1.05901e-09
1.04407e-10
-1.15577e-09
-5.88427e-10
8.76885e-11
-2.17071e-09
2.20419e-09
-4.81953e-09
4.86832e-09
-8.64121e-09
7.83888e-09
-1.36852e-08
1.09393e-08
-1.99562e-08
1.40423e-08
-2.74251e-08
1.7057e-08
-3.60366e-08
1.99187e-08
-4.57165e-08
2.25816e-08
-5.63764e-08
2.50144e-08
-6.79183e-08
2.71956e-08
-8.02373e-08
2.91118e-08
-9.32244e-08
3.07554e-08
-1.06768e-07
3.2123e-08
-1.20757e-07
3.32149e-08
-1.35079e-07
3.40336e-08
-1.49624e-07
3.45841e-08
-1.64284e-07
3.48727e-08
-1.78953e-07
3.49072e-08
-1.93531e-07
3.4696e-08
-2.07919e-07
3.42487e-08
-2.22021e-07
3.35754e-08
-2.3575e-07
3.26864e-08
-2.49018e-07
3.15929e-08
-2.61744e-07
3.0306e-08
-2.73853e-07
2.88373e-08
-2.85273e-07
2.71985e-08
-2.95938e-07
2.54016e-08
-3.05787e-07
2.34587e-08
-3.14762e-07
2.13822e-08
-3.22814e-07
1.91844e-08
-3.29896e-07
1.68781e-08
-3.35969e-07
1.44761e-08
-3.40998e-07
1.19913e-08
-3.44954e-07
9.43707e-09
-3.47813e-07
6.82673e-09
-3.49557e-07
4.17394e-09
-3.50176e-07
1.49254e-09
-3.49662e-07
-1.20339e-09
-3.48016e-07
-3.89956e-09
-3.45245e-07
-6.58145e-09
-3.41361e-07
-9.23434e-09
-3.36382e-07
-1.18433e-08
-3.30333e-07
-1.43933e-08
-3.23247e-07
-1.68691e-08
-3.1516e-07
-1.92554e-08
-3.06117e-07
-2.15368e-08
-2.96168e-07
-2.36981e-08
-2.85371e-07
-2.57238e-08
-2.73788e-07
-2.75989e-08
-2.6149e-07
-2.93084e-08
-2.4855e-07
-3.08377e-08
-2.35051e-07
-3.21726e-08
-2.2108e-07
-3.32994e-08
-2.06728e-07
-3.42051e-08
-1.92092e-07
-3.48773e-08
-1.77275e-07
-3.53047e-08
-1.62381e-07
-3.54768e-08
-1.47521e-07
-3.53846e-08
-1.32805e-07
-3.50203e-08
-1.1835e-07
-3.43779e-08
-1.04269e-07
-3.34533e-08
-9.06793e-08
-3.22446e-08
-7.76953e-08
-3.07526e-08
-6.54296e-08
-2.89814e-08
-5.39905e-08
-2.69389e-08
-4.34803e-08
-2.46378e-08
-3.39926e-08
-2.2097e-08
-2.5609e-08
-1.93433e-08
-1.8395e-08
-1.64136e-08
-1.23952e-08
-1.33589e-08
-7.62686e-09
-1.02482e-08
-4.07175e-09
-7.1762e-09
-1.6667e-09
-4.27158e-09
-2.91902e-10
-1.70998e-09
2.4176e-10
2.72437e-10
2.07774e-10
1.36152e-09
1.11313e-09
-4.7512e-11
-1.01149e-09
-6.54497e-10
-5.48771e-10
-2.15863e-09
1.59183e-09
-4.80025e-09
4.84582e-09
-8.74346e-09
8.81154e-09
-1.40876e-08
1.3183e-08
-2.08776e-08
1.77292e-08
-2.91136e-08
2.22783e-08
-3.87601e-08
2.67036e-08
-4.97534e-08
3.09119e-08
-6.20075e-08
3.48358e-08
-7.54205e-08
3.84273e-08
-8.98778e-08
4.16529e-08
-1.05256e-07
4.44905e-08
-1.21428e-07
4.69266e-08
-1.38259e-07
4.89546e-08
-1.55617e-07
5.0573e-08
-1.73368e-07
5.17845e-08
-1.91379e-07
5.25951e-08
-2.0952e-07
5.30132e-08
-2.27662e-07
5.30496e-08
-2.45683e-07
5.27166e-08
-2.63462e-07
5.20276e-08
-2.80884e-07
5.09974e-08
-2.97839e-07
4.96416e-08
-3.14222e-07
4.79762e-08
-3.29934e-07
4.60182e-08
-3.44882e-07
4.37847e-08
-3.58977e-07
4.12935e-08
-3.72137e-07
3.85625e-08
-3.84289e-07
3.56101e-08
-3.95362e-07
3.2455e-08
-4.05293e-07
2.91161e-08
-4.14028e-07
2.56125e-08
-4.21516e-07
2.19639e-08
-4.27714e-07
1.81899e-08
-4.32588e-07
1.43107e-08
-4.36108e-07
1.03468e-08
-4.38253e-07
6.31879e-09
-4.39008e-07
2.24783e-09
-4.38367e-07
-1.8447e-09
-4.36329e-07
-5.93707e-09
-4.32903e-07
-1.00072e-08
-4.28105e-07
-1.40329e-08
-4.21957e-07
-1.79913e-08
-4.1449e-07
-2.18598e-08
-4.05744e-07
-2.56153e-08
-3.95765e-07
-2.92346e-08
-3.84607e-07
-3.26946e-08
-3.72333e-07
-3.59721e-08
-3.59013e-07
-3.90441e-08
-3.44724e-07
-4.18879e-08
-3.29551e-07
-4.4481e-08
-3.13588e-07
-4.68015e-08
-2.96932e-07
-4.88283e-08
-2.79691e-07
-5.05409e-08
-2.61976e-07
-5.19199e-08
-2.43906e-07
-5.29472e-08
-2.25605e-07
-5.36059e-08
-2.07201e-07
-5.3881e-08
-1.88826e-07
-5.37594e-08
-1.70616e-07
-5.32301e-08
-1.52709e-07
-5.2285e-08
-1.35243e-07
-5.09186e-08
-1.18359e-07
-4.91295e-08
-1.02191e-07
-4.69199e-08
-8.68752e-08
-4.42975e-08
-7.25385e-08
-4.12755e-08
-5.93015e-08
-3.78749e-08
-4.72732e-08
-3.41253e-08
-3.65484e-08
-3.00681e-08
-2.7203e-08
-2.5759e-08
-1.92888e-08
-2.1273e-08
-1.28278e-08
-1.67092e-08
-7.80457e-09
-1.21994e-08
-4.15843e-09
-7.91775e-09
-1.7741e-09
-4.09437e-09
-4.72128e-10
-1.02956e-09
2.05461e-12
8.87321e-10
1.11515e-09
-2.94304e-10
-7.17178e-10
-1.51836e-09
6.75287e-10
-3.94071e-09
4.01419e-09
-7.7604e-09
8.66552e-09
-1.31146e-08
1.41658e-08
-2.00847e-08
2.01531e-08
-2.87028e-08
2.63473e-08
-3.8959e-08
3.25345e-08
-5.08082e-08
3.85527e-08
-6.41763e-08
4.428e-08
-7.89664e-08
4.9626e-08
-9.50635e-08
5.45244e-08
-1.12339e-07
5.89283e-08
-1.30654e-07
6.28053e-08
-1.49862e-07
6.61352e-08
-1.69814e-07
6.89066e-08
-1.90357e-07
7.11159e-08
-2.11338e-07
7.2765e-08
-2.32604e-07
7.3861e-08
-2.54005e-07
7.44142e-08
-2.75393e-07
7.44385e-08
-2.96627e-07
7.39499e-08
-3.17566e-07
7.29667e-08
-3.38077e-07
7.15085e-08
-3.58032e-07
6.95966e-08
-3.77309e-07
6.7253e-08
-3.95791e-07
6.45009e-08
-4.13371e-07
6.13642e-08
-4.29945e-07
5.78673e-08
-4.45418e-07
5.40353e-08
-4.59701e-07
4.98938e-08
-4.72715e-07
4.54687e-08
-4.84385e-07
4.07867e-08
-4.94647e-07
3.58744e-08
-5.03443e-07
3.07594e-08
-5.10722e-07
2.54693e-08
-5.16444e-07
2.00324e-08
-5.20574e-07
1.44772e-08
-5.23089e-07
8.83285e-09
-5.2397e-07
3.12891e-09
-5.2321e-07
-2.60463e-09
-5.20809e-07
-8.33734e-09
-5.16778e-07
-1.40384e-08
-5.11135e-07
-1.96764e-08
-5.03906e-07
-2.522e-08
-4.95129e-07
-3.0637e-08
-4.84849e-07
-3.58955e-08
-4.7312e-07
-4.09632e-08
-4.60007e-07
-4.58078e-08
-4.45582e-07
-5.03971e-08
-4.29927e-07
-5.46991e-08
-4.13132e-07
-5.86823e-08
-3.95298e-07
-6.23155e-08
-3.7653e-07
-6.55687e-08
-3.56946e-07
-6.84124e-08
-3.36669e-07
-7.08186e-08
-3.15828e-07
-7.27607e-08
-2.94561e-07
-7.42138e-08
-2.73012e-07
-7.51553e-08
-2.51328e-07
-7.55647e-08
-2.29663e-07
-7.54246e-08
-2.08172e-07
-7.47206e-08
-1.87015e-07
-7.34422e-08
-1.6635e-07
-7.15834e-08
-1.46337e-07
-6.9143e-08
-1.27131e-07
-6.61258e-08
-1.08885e-07
-6.25437e-08
-9.17434e-08
-5.84169e-08
-7.58428e-08
-5.37755e-08
-6.13062e-08
-4.86619e-08
-4.82405e-08
-4.31338e-08
-3.67321e-08
-3.72674e-08
-2.6842e-08
-3.1163e-08
-1.86004e-08
-2.49508e-08
-1.20005e-08
-1.87993e-08
-6.9923e-09
-1.29259e-08
-3.47596e-09
-7.61075e-09
-1.29547e-09
-3.21008e-09
-2.32915e-10
-1.7524e-10
8.82246e-10
-5.50557e-10
-1.66615e-10
-2.42957e-09
2.55429e-09
-5.83003e-09
7.41466e-09
-1.08998e-08
1.37353e-08
-1.77398e-08
2.10057e-08
-2.64051e-08
2.88184e-08
-3.69085e-08
3.68506e-08
-4.92246e-08
4.48505e-08
-6.3295e-08
5.26232e-08
-7.90337e-08
6.00187e-08
-9.63315e-08
6.69237e-08
-1.1506e-07
7.32534e-08
-1.35078e-07
7.89463e-08
-1.56232e-07
8.39593e-08
-1.78361e-07
8.8264e-08
-2.01299e-07
9.18442e-08
-2.24876e-07
9.4693e-08
-2.48923e-07
9.68116e-08
-2.73269e-07
9.82073e-08
-2.97747e-07
9.88926e-08
-3.22193e-07
9.88843e-08
-3.46446e-07
9.82026e-08
-3.70349e-07
9.68704e-08
-3.93754e-07
9.49131e-08
-4.16515e-07
9.23579e-08
-4.38496e-07
8.92335e-08
-4.59565e-07
8.557e-08
-4.796e-07
8.13987e-08
-4.98484e-07
7.67515e-08
-5.1611e-07
7.16615e-08
-5.32378e-07
6.61623e-08
-5.47198e-07
6.02884e-08
-5.60486e-07
5.40747e-08
-5.72168e-07
4.75567e-08
-5.8218e-07
4.07707e-08
-5.90464e-07
3.37534e-08
-5.96974e-07
2.65422e-08
-6.01672e-07
1.91751e-08
-6.04529e-07
1.16905e-08
-6.05528e-07
4.12768e-09
-6.04659e-07
-3.4737e-09
-6.01923e-07
-1.10733e-08
-5.97331e-07
-1.86303e-08
-5.90904e-07
-2.61034e-08
-5.82673e-07
-3.34508e-08
-5.7268e-07
-4.06304e-08
-5.60975e-07
-4.75998e-08
-5.47622e-07
-5.43164e-08
-5.32692e-07
-6.07378e-08
-5.16268e-07
-6.68216e-08
-4.98441e-07
-7.25257e-08
-4.79315e-07
-7.78088e-08
-4.59e-07
-8.26301e-08
-4.37619e-07
-8.695e-08
-4.15301e-07
-9.07303e-08
-3.92185e-07
-9.39343e-08
-3.68418e-07
-9.65276e-08
-3.44154e-07
-9.8478e-08
-3.19553e-07
-9.97562e-08
-2.94782e-07
-1.00336e-07
-2.70011e-07
-1.00195e-07
-2.45415e-07
-9.93164e-08
-2.21171e-07
-9.76865e-08
-1.97456e-07
-9.52987e-08
-1.74446e-07
-9.21528e-08
-1.52315e-07
-8.82568e-08
-1.31231e-07
-8.36274e-08
-1.11356e-07
-7.82926e-08
-9.28383e-08
-7.22928e-08
-7.58158e-08
-6.56844e-08
-6.04076e-08
-5.8542e-08
-4.67117e-08
-5.09634e-08
-3.48004e-08
-4.30743e-08
-2.47161e-08
-3.50352e-08
-1.64656e-08
-2.70497e-08
-1.00165e-08
-1.9375e-08
-5.29242e-09
-1.23348e-08
-2.17021e-09
-6.33228e-09
-4.78736e-10
-1.86672e-09
4.03533e-10
-8.06406e-10
6.39788e-10
-3.35335e-09
5.10123e-09
-7.75939e-09
1.18207e-08
-1.41171e-08
2.0093e-08
-2.24854e-08
2.93741e-08
-3.28877e-08
3.92207e-08
-4.53118e-08
4.92748e-08
-5.97128e-08
5.92515e-08
-7.60159e-08
6.89262e-08
-9.41201e-08
7.81229e-08
-1.13903e-07
8.67062e-08
-1.35222e-07
9.45732e-08
-1.57924e-07
1.01648e-07
-1.8184e-07
1.07875e-07
-2.06796e-07
1.1322e-07
-2.3261e-07
1.17659e-07
-2.591e-07
1.21182e-07
-2.86078e-07
1.2379e-07
-3.13361e-07
1.2549e-07
-3.40765e-07
1.26297e-07
-3.6811e-07
1.26229e-07
-3.9522e-07
1.25312e-07
-4.21924e-07
1.23574e-07
-4.48057e-07
1.21046e-07
-4.73461e-07
1.17762e-07
-4.97984e-07
1.13757e-07
-5.21483e-07
1.09069e-07
-5.43821e-07
1.03737e-07
-5.64871e-07
9.7802e-08
-5.84515e-07
9.13053e-08
-6.02642e-07
8.42896e-08
-6.19152e-07
7.67984e-08
-6.33954e-07
6.8876e-08
-6.46965e-07
6.05676e-08
-6.58113e-07
5.19192e-08
-6.67337e-07
4.29774e-08
-6.74585e-07
3.37899e-08
-6.79815e-07
2.44048e-08
-6.82995e-07
1.48712e-08
-6.84106e-07
5.23875e-09
-6.83138e-07
-4.44197e-09
-6.80092e-07
-1.41198e-08
-6.74979e-07
-2.37429e-08
-6.67824e-07
-3.32587e-08
-6.5866e-07
-4.26144e-08
-6.47534e-07
-5.17565e-08
-6.34503e-07
-6.06313e-08
-6.19634e-07
-6.9185e-08
-6.03008e-07
-7.73639e-08
-5.84715e-07
-8.51143e-08
-5.64858e-07
-9.23833e-08
-5.43548e-07
-9.91185e-08
-5.20909e-07
-1.05269e-07
-4.97075e-07
-1.10784e-07
-4.72189e-07
-1.15617e-07
-4.46402e-07
-1.19721e-07
-4.19877e-07
-1.23053e-07
-3.92781e-07
-1.25573e-07
-3.65292e-07
-1.27245e-07
-3.37592e-07
-1.28037e-07
-3.09867e-07
-1.27921e-07
-2.82308e-07
-1.26875e-07
-2.55108e-07
-1.24886e-07
-2.28461e-07
-1.21946e-07
-2.02559e-07
-1.18054e-07
-1.77592e-07
-1.13224e-07
-1.53743e-07
-1.07477e-07
-1.31186e-07
-1.00849e-07
-1.10087e-07
-9.33919e-08
-9.05953e-08
-8.51761e-08
-7.28436e-08
-7.62938e-08
-5.69431e-08
-6.68639e-08
-4.29801e-08
-5.70372e-08
-3.10124e-08
-4.70029e-08
-2.10652e-08
-3.69969e-08
-1.31285e-08
-2.73116e-08
-7.15536e-09
-1.8308e-08
-3.06089e-09
-1.04267e-08
-7.25171e-10
-4.20243e-09
-3.21628e-10
-1.05676e-09
1.69653e-09
-4.26944e-09
8.31391e-09
-9.68694e-09
1.72382e-08
-1.73461e-08
2.77521e-08
-2.72615e-08
3.92894e-08
-3.94209e-08
5.13801e-08
-5.37839e-08
6.36378e-08
-7.02822e-08
7.57498e-08
-8.88214e-08
8.74654e-08
-1.09284e-07
9.85853e-08
-1.31531e-07
1.08954e-07
-1.55408e-07
1.1845e-07
-1.80745e-07
1.26985e-07
-2.07362e-07
1.34492e-07
-2.3507e-07
1.40928e-07
-2.63674e-07
1.46263e-07
-2.92977e-07
1.50485e-07
-3.22779e-07
1.53592e-07
-3.5288e-07
1.55592e-07
-3.83085e-07
1.56501e-07
-4.13198e-07
1.56342e-07
-4.4303e-07
1.55145e-07
-4.72397e-07
1.52941e-07
-5.0112e-07
1.49769e-07
-5.29028e-07
1.4567e-07
-5.55957e-07
1.40686e-07
-5.81752e-07
1.34864e-07
-6.06266e-07
1.28251e-07
-6.2936e-07
1.20896e-07
-6.50906e-07
1.12851e-07
-6.70785e-07
1.04168e-07
-6.88887e-07
9.49004e-08
-7.05113e-07
8.51022e-08
-7.19375e-07
7.48294e-08
-7.31594e-07
6.41385e-08
-7.41704e-07
5.3087e-08
-7.49647e-07
4.17335e-08
-7.5538e-07
3.01372e-08
-7.58867e-07
1.83588e-08
-7.60088e-07
6.45928e-09
-7.59031e-07
-5.49902e-09
-7.55697e-07
-1.74531e-08
-7.50101e-07
-2.93393e-08
-7.42267e-07
-4.10929e-08
-7.32232e-07
-5.2649e-08
-7.20047e-07
-6.39418e-08
-7.05773e-07
-7.49055e-08
-6.89484e-07
-8.54739e-08
-6.71266e-07
-9.55812e-08
-6.51219e-07
-1.05162e-07
-6.29452e-07
-1.14151e-07
-6.06086e-07
-1.22484e-07
-5.81256e-07
-1.30099e-07
-5.55106e-07
-1.36935e-07
-5.2779e-07
-1.42933e-07
-4.99473e-07
-1.48038e-07
-4.70329e-07
-1.52197e-07
-4.40541e-07
-1.55361e-07
-4.10299e-07
-1.57488e-07
-3.79798e-07
-1.58537e-07
-3.49242e-07
-1.58477e-07
-3.18834e-07
-1.57283e-07
-2.88784e-07
-1.54936e-07
-2.593e-07
-1.5143e-07
-2.30588e-07
-1.46766e-07
-2.02853e-07
-1.40959e-07
-1.76293e-07
-1.34037e-07
-1.51096e-07
-1.26045e-07
-1.27442e-07
-1.17046e-07
-1.05494e-07
-1.07124e-07
-8.53997e-08
-9.63884e-08
-6.72847e-08
-8.49789e-08
-5.12519e-08
-7.307e-08
-3.73775e-08
-6.08773e-08
-2.57086e-08
-4.86658e-08
-1.62616e-08
-3.67586e-08
-9.02216e-09
-2.55474e-08
-3.94666e-09
-1.55022e-08
-9.66874e-10
-7.18221e-09
-1.28851e-09
-1.2992e-09
2.99573e-09
-5.16668e-09
1.21814e-08
-1.15878e-08
2.36593e-08
-2.05455e-08
3.67099e-08
-3.20096e-08
5.07535e-08
-4.59303e-08
6.53009e-08
-6.22365e-08
7.9944e-08
-8.08339e-08
9.43472e-08
-1.01606e-07
1.08238e-07
-1.24417e-07
1.21396e-07
-1.4911e-07
1.33647e-07
-1.75516e-07
1.44856e-07
-2.0345e-07
1.54919e-07
-2.32717e-07
1.6376e-07
-2.63117e-07
1.71327e-07
-2.9444e-07
1.77586e-07
-3.26476e-07
1.82521e-07
-3.59012e-07
1.86128e-07
-3.91836e-07
1.88416e-07
-4.24738e-07
1.89403e-07
-4.57512e-07
1.89116e-07
-4.89954e-07
1.87587e-07
-5.21869e-07
1.84856e-07
-5.53066e-07
1.80966e-07
-5.83362e-07
1.75966e-07
-6.12584e-07
1.69907e-07
-6.40564e-07
1.62843e-07
-6.67145e-07
1.54832e-07
-6.92179e-07
1.45931e-07
-7.1553e-07
1.36202e-07
-7.37069e-07
1.25707e-07
-7.5668e-07
1.14511e-07
-7.74257e-07
1.02679e-07
-7.89704e-07
9.02768e-08
-8.02939e-07
7.73732e-08
-8.13889e-07
6.4037e-08
-8.22494e-07
5.03385e-08
-8.28706e-07
3.63491e-08
-8.32488e-07
2.21413e-08
-8.33818e-07
7.7888e-09
-8.32683e-07
-6.63388e-09
-8.29085e-07
-2.1051e-08
-8.23038e-07
-3.53861e-08
-8.14569e-07
-4.95617e-08
-8.03719e-07
-6.34996e-08
-7.90539e-07
-7.71214e-08
-7.75097e-07
-9.03479e-08
-7.57471e-07
-1.031e-07
-7.37753e-07
-1.15299e-07
-7.16048e-07
-1.26866e-07
-6.92475e-07
-1.37724e-07
-6.67163e-07
-1.47796e-07
-6.40255e-07
-1.57007e-07
-6.11904e-07
-1.65286e-07
-5.82275e-07
-1.72561e-07
-5.51546e-07
-1.78768e-07
-5.199e-07
-1.83842e-07
-4.87533e-07
-1.87728e-07
-4.54647e-07
-1.90374e-07
-4.21452e-07
-1.91732e-07
-3.88162e-07
-1.91767e-07
-3.54998e-07
-1.90447e-07
-3.22181e-07
-1.87754e-07
-2.89932e-07
-1.83678e-07
-2.58474e-07
-1.78224e-07
-2.28025e-07
-1.71409e-07
-1.98795e-07
-1.63267e-07
-1.7099e-07
-1.53851e-07
-1.44801e-07
-1.43235e-07
-1.20408e-07
-1.31517e-07
-9.7973e-08
-1.18823e-07
-7.76395e-08
-1.05312e-07
-5.95286e-08
-9.11809e-08
-4.37374e-08
-7.66686e-08
-3.03373e-08
-6.20658e-08
-1.93739e-08
-4.7722e-08
-1.08674e-08
-3.40539e-08
-4.81595e-09
-2.15537e-08
-1.20128e-09
-1.07969e-08
-2.4898e-09
-1.53287e-09
4.5286e-09
-6.03956e-09
1.66881e-08
-1.34483e-08
3.1068e-08
-2.36912e-08
4.69528e-08
-3.66939e-08
6.37561e-08
-5.23688e-08
8.09759e-08
-7.06123e-08
9.81875e-08
-9.13026e-08
1.15037e-07
-1.14299e-07
1.31235e-07
-1.39445e-07
1.46542e-07
-1.66567e-07
1.60768e-07
-1.95476e-07
1.73765e-07
-2.25974e-07
1.85417e-07
-2.57852e-07
1.95638e-07
-2.90894e-07
2.04369e-07
-3.24879e-07
2.11571e-07
-3.59583e-07
2.17225e-07
-3.94781e-07
2.21326e-07
-4.30249e-07
2.23884e-07
-4.65765e-07
2.24919e-07
-5.0111e-07
2.24461e-07
-5.3607e-07
2.22547e-07
-5.70438e-07
2.19224e-07
-6.04014e-07
2.14541e-07
-6.36602e-07
2.08555e-07
-6.6802e-07
2.01325e-07
-6.98091e-07
1.92914e-07
-7.26648e-07
1.83389e-07
-7.53537e-07
1.72819e-07
-7.7861e-07
1.61275e-07
-8.01734e-07
1.48831e-07
-8.22784e-07
1.35562e-07
-8.41649e-07
1.21544e-07
-8.58227e-07
1.06856e-07
-8.72432e-07
9.15774e-08
-8.84185e-07
7.57905e-08
-8.93424e-07
5.95775e-08
-9.00097e-07
4.30224e-08
-9.04167e-07
2.62107e-08
-9.05607e-07
9.229e-09
-9.04406e-07
-7.83494e-09
-9.00565e-07
-2.48921e-08
-8.94099e-07
-4.18523e-08
-8.85036e-07
-5.86247e-08
-8.73418e-07
-7.51173e-08
-8.59302e-07
-9.12378e-08
-8.42756e-07
-1.06893e-07
-8.23865e-07
-1.21991e-07
-8.02726e-07
-1.36438e-07
-7.79449e-07
-1.50143e-07
-7.54159e-07
-1.63014e-07
-7.26993e-07
-1.74962e-07
-6.98102e-07
-1.85898e-07
-6.67648e-07
-1.9574e-07
-6.35806e-07
-2.04404e-07
-6.0276e-07
-2.11813e-07
-5.68708e-07
-2.17894e-07
-5.33855e-07
-2.22581e-07
-4.98416e-07
-2.25813e-07
-4.62611e-07
-2.27537e-07
-4.26668e-07
-2.2771e-07
-3.90819e-07
-2.26296e-07
-3.55299e-07
-2.23274e-07
-3.20343e-07
-2.18634e-07
-2.86188e-07
-2.1238e-07
-2.53063e-07
-2.04533e-07
-2.21196e-07
-1.95134e-07
-1.90805e-07
-1.84242e-07
-1.62097e-07
-1.71943e-07
-1.35268e-07
-1.58346e-07
-1.10497e-07
-1.43594e-07
-8.79451e-08
-1.27864e-07
-6.77549e-08
-1.11371e-07
-5.00459e-08
-9.43775e-08
-3.49162e-08
-7.71956e-08
-2.24415e-08
-6.01967e-08
-1.26774e-08
-4.3818e-08
-5.66313e-09
-2.8568e-08
-1.42745e-09
-1.50326e-08
-3.91724e-09
-1.75775e-09
6.28635e-09
-6.88613e-09
2.18164e-08
-1.52621e-08
3.9444e-08
-2.67706e-08
5.84613e-08
-4.12946e-08
7.828e-08
-5.8709e-08
9.83902e-08
-7.8877e-08
1.18356e-07
-1.01648e-07
1.37809e-07
-1.26857e-07
1.56443e-07
-1.54323e-07
1.74008e-07
-1.83854e-07
1.90299e-07
-2.15245e-07
2.05156e-07
-2.48279e-07
2.18451e-07
-2.82734e-07
2.30092e-07
-3.18378e-07
2.40014e-07
-3.54979e-07
2.48172e-07
-3.92298e-07
2.54545e-07
-4.301e-07
2.59128e-07
-4.68148e-07
2.61932e-07
-5.06209e-07
2.6298e-07
-5.44053e-07
2.62304e-07
-5.81456e-07
2.5995e-07
-6.18199e-07
2.55968e-07
-6.54073e-07
2.50415e-07
-6.88874e-07
2.43356e-07
-7.22408e-07
2.3486e-07
-7.54492e-07
2.24998e-07
-7.84951e-07
2.13848e-07
-8.13621e-07
2.01489e-07
-8.40349e-07
1.88003e-07
-8.64993e-07
1.73476e-07
-8.87425e-07
1.57993e-07
-9.07527e-07
1.41645e-07
-9.25192e-07
1.24521e-07
-9.40328e-07
1.06714e-07
-9.52855e-07
8.83177e-08
-9.62707e-07
6.94288e-08
-9.69828e-07
5.0144e-08
-9.7418e-07
3.05622e-08
-9.75734e-07
1.07836e-08
-9.74479e-07
-9.08996e-09
-9.70416e-07
-2.89556e-08
-9.63559e-07
-4.87091e-08
-9.53938e-07
-6.82452e-08
-9.41598e-07
-8.74577e-08
-9.26596e-07
-1.0624e-07
-9.09005e-07
-1.24484e-07
-8.88913e-07
-1.42083e-07
-8.66421e-07
-1.5893e-07
-8.41645e-07
-1.74919e-07
-8.14715e-07
-1.89944e-07
-7.85775e-07
-2.03902e-07
-7.54982e-07
-2.16691e-07
-7.22507e-07
-2.28215e-07
-6.88532e-07
-2.38379e-07
-6.53252e-07
-2.47093e-07
-6.16872e-07
-2.54274e-07
-5.7961e-07
-2.59844e-07
-5.41688e-07
-2.63735e-07
-5.03341e-07
-2.65885e-07
-4.64806e-07
-2.66244e-07
-4.26329e-07
-2.64773e-07
-3.88156e-07
-2.61447e-07
-3.50537e-07
-2.56253e-07
-3.1372e-07
-2.49197e-07
-2.7795e-07
-2.40303e-07
-2.43468e-07
-2.29616e-07
-2.10507e-07
-2.17203e-07
-1.79292e-07
-2.03158e-07
-1.50035e-07
-1.87604e-07
-1.22932e-07
-1.70697e-07
-9.81657e-08
-1.5263e-07
-7.58996e-08
-1.33637e-07
-5.62782e-08
-1.13999e-07
-3.94269e-08
-9.40469e-08
-2.54527e-08
-7.41709e-08
-1.44463e-08
-5.48243e-08
-6.48632e-09
-3.65279e-08
-1.64535e-09
-1.98735e-08
-5.56259e-09
-1.97432e-09
8.26067e-09
-7.70661e-09
2.75487e-08
-1.70279e-08
4.87653e-08
-2.97793e-08
7.12127e-08
-4.58032e-08
9.43039e-08
-6.49377e-08
1.17525e-07
-8.70129e-08
1.40431e-07
-1.11849e-07
1.62644e-07
-1.39254e-07
1.83848e-07
-1.69025e-07
2.03779e-07
-2.00948e-07
2.22223e-07
-2.348e-07
2.39007e-07
-2.70346e-07
2.53998e-07
-3.07349e-07
2.67095e-07
-3.45563e-07
2.78228e-07
-3.84742e-07
2.8735e-07
-4.24635e-07
2.94438e-07
-4.64993e-07
2.99487e-07
-5.05569e-07
3.02509e-07
-5.46119e-07
3.0353e-07
-5.86403e-07
3.02588e-07
-6.26186e-07
2.99733e-07
-6.6524e-07
2.95022e-07
-7.03347e-07
2.88522e-07
-7.40294e-07
2.80303e-07
-7.7588e-07
2.70445e-07
-8.09913e-07
2.5903e-07
-8.4221e-07
2.46145e-07
-8.72601e-07
2.3188e-07
-9.00927e-07
2.16329e-07
-9.2704e-07
1.9959e-07
-9.50806e-07
1.81759e-07
-9.72102e-07
1.6294e-07
-9.90817e-07
1.43236e-07
-1.00686e-06
1.22752e-07
-1.02013e-06
1.01596e-07
-1.03058e-06
7.98761e-08
-1.03814e-06
5.77046e-08
-1.04277e-06
3.51939e-08
-1.04445e-06
1.24583e-08
-1.04315e-06
-1.03859e-08
-1.03889e-06
-3.32214e-08
-1.03167e-06
-5.59293e-08
-1.02152e-06
-7.83894e-08
-1.0085e-06
-1.00481e-07
-9.92657e-07
-1.22081e-07
-9.74072e-07
-1.43069e-07
-9.52835e-07
-1.63321e-07
-9.2905e-07
-1.82715e-07
-9.02838e-07
-2.01131e-07
-8.74335e-07
-2.18448e-07
-8.43688e-07
-2.34548e-07
-8.11062e-07
-2.49317e-07
-7.76635e-07
-2.62642e-07
-7.40596e-07
-2.74418e-07
-7.03148e-07
-2.8454e-07
-6.64506e-07
-2.92916e-07
-6.24895e-07
-2.99455e-07
-5.8455e-07
-3.0408e-07
-5.43713e-07
-3.06722e-07
-5.02636e-07
-3.07322e-07
-4.61573e-07
-3.05836e-07
-4.20785e-07
-3.02234e-07
-3.80534e-07
-2.96504e-07
-3.41081e-07
-2.8865e-07
-3.02686e-07
-2.78698e-07
-2.65605e-07
-2.66697e-07
-2.30087e-07
-2.52721e-07
-1.96372e-07
-2.36872e-07
-1.64692e-07
-2.19284e-07
-1.35262e-07
-2.00127e-07
-1.08286e-07
-1.79606e-07
-8.39497e-08
-1.57973e-07
-6.24242e-08
-1.35524e-07
-4.38629e-08
-1.12608e-07
-2.84042e-08
-8.96297e-08
-1.61731e-08
-6.70553e-08
-7.28603e-09
-4.5415e-08
-1.85554e-09
-2.5304e-08
-7.41812e-09
-2.18334e-09
1.0444e-08
-8.50255e-09
3.38679e-08
-1.87473e-08
5.90101e-08
-3.27182e-08
8.51836e-08
-5.02189e-08
1.11805e-07
-7.10521e-08
1.38358e-07
-9.5015e-08
1.64394e-07
-1.21898e-07
1.89527e-07
-1.51483e-07
2.13433e-07
-1.83542e-07
2.35839e-07
-2.1784e-07
2.56521e-07
-2.54134e-07
2.753e-07
-2.92172e-07
2.92036e-07
-3.31699e-07
3.06622e-07
-3.72456e-07
3.18985e-07
-4.14181e-07
3.29075e-07
-4.56613e-07
3.36869e-07
-4.99489e-07
3.42363e-07
-5.42552e-07
3.45571e-07
-5.85546e-07
3.46523e-07
-6.28221e-07
3.45263e-07
-6.70333e-07
3.41845e-07
-7.11646e-07
3.36336e-07
-7.51932e-07
3.28808e-07
-7.90972e-07
3.19343e-07
-8.28555e-07
3.08028e-07
-8.64482e-07
2.94958e-07
-8.98566e-07
2.80229e-07
-9.30629e-07
2.63943e-07
-9.60506e-07
2.46207e-07
-9.88045e-07
2.27129e-07
-1.01311e-06
2.0682e-07
-1.03556e-06
1.85396e-07
-1.0553e-06
1.62972e-07
-1.07221e-06
1.39669e-07
-1.08623e-06
1.15606e-07
-1.09726e-06
9.09077e-08
-1.10525e-06
6.56989e-08
-1.11016e-06
4.01069e-08
-1.11197e-06
1.42606e-08
-1.11064e-06
-1.1709e-08
-1.1062e-06
-3.76695e-08
-1.09864e-06
-6.34868e-08
-1.088e-06
-8.90256e-08
-1.07433e-06
-1.14149e-07
-1.05769e-06
-1.3872e-07
-1.03816e-06
-1.62601e-07
-1.01583e-06
-1.85653e-07
-9.90805e-07
-2.07739e-07
-9.63214e-07
-2.28723e-07
-9.33193e-07
-2.48468e-07
-9.00899e-07
-2.66843e-07
-8.66499e-07
-2.83716e-07
-8.30178e-07
-2.98964e-07
-7.92132e-07
-3.12463e-07
-7.52572e-07
-3.24101e-07
-7.1172e-07
-3.33768e-07
-6.6981e-07
-3.41365e-07
-6.27087e-07
-3.46804e-07
-5.83803e-07
-3.50006e-07
-5.40219e-07
-3.50905e-07
-4.96603e-07
-3.49451e-07
-4.53228e-07
-3.4561e-07
-4.10367e-07
-3.39365e-07
-3.68296e-07
-3.30721e-07
-3.27289e-07
-3.19705e-07
-2.87618e-07
-3.06368e-07
-2.49549e-07
-2.9079e-07
-2.1334e-07
-2.73081e-07
-1.7924e-07
-2.53384e-07
-1.47486e-07
-2.3188e-07
-1.18305e-07
-2.08788e-07
-9.19051e-08
-1.84373e-07
-6.84849e-08
-1.58945e-07
-4.82263e-08
-1.32867e-07
-3.12987e-08
-1.06557e-07
-1.78608e-08
-8.04932e-08
-8.06427e-09
-5.52115e-08
-2.05887e-09
-3.13094e-08
-9.47699e-09
-2.38567e-09
1.28297e-08
-9.27627e-09
4.07585e-08
-2.04239e-08
7.01577e-08
-3.55914e-08
1.00351e-07
-5.45462e-08
1.3076e-07
-7.70563e-08
1.60868e-07
-1.02887e-07
1.90224e-07
-1.31798e-07
2.18439e-07
-1.63546e-07
2.4518e-07
-1.97877e-07
2.7017e-07
-2.34534e-07
2.93178e-07
-2.73252e-07
3.14018e-07
-3.13763e-07
3.32547e-07
-3.55795e-07
3.48654e-07
-3.99073e-07
3.62262e-07
-4.4332e-07
3.73323e-07
-4.88262e-07
3.81811e-07
-5.33625e-07
3.87727e-07
-5.7914e-07
3.91086e-07
-6.2454e-07
3.91924e-07
-6.69567e-07
3.9029e-07
-7.13968e-07
3.86246e-07
-7.57497e-07
3.79865e-07
-7.99918e-07
3.71229e-07
-8.41004e-07
3.60429e-07
-8.80539e-07
3.47564e-07
-9.18318e-07
3.32736e-07
-9.54145e-07
3.16056e-07
-9.87839e-07
2.97637e-07
-1.01923e-06
2.77597e-07
-1.04816e-06
2.56058e-07
-1.07448e-06
2.33145e-07
-1.09807e-06
2.08984e-07
-1.11881e-06
1.83707e-07
-1.13658e-06
1.57446e-07
-1.15131e-06
1.30336e-07
-1.16292e-06
1.02516e-07
-1.17135e-06
7.41248e-08
-1.17654e-06
4.53047e-08
-1.17848e-06
1.61995e-08
-1.17715e-06
-1.30446e-08
-1.17254e-06
-4.22798e-08
-1.16467e-06
-7.13565e-08
-1.15357e-06
-1.00124e-07
-1.13929e-06
-1.28429e-07
-1.12189e-06
-1.56118e-07
-1.10146e-06
-1.83039e-07
-1.07807e-06
-2.09035e-07
-1.05186e-06