/*--------------------------------*- C++ -*----------------------------------*\
  =========                 |
  \\      /  F ield         | OpenFOAM: The Open Source CFD Toolbox
   \\    /   O peration     | Website:  https://openfoam.org
    \\  /    A nd           | Version:  7
     \\/     M anipulation  |
\*---------------------------------------------------------------------------*/
FoamFile
{
    version     2.0;
    format      ascii;
    class       volVectorField;
    location    "0.3";
    object      U;
}
// * * * * * * * * * * * * * * * * * * * * * * * * * * * * * * * * * * * * * //

dimensions      [0 1 -1 0 0 0 0];

internalField   nonuniform List<vector> 
6400
(
(7.18972e-06 -7.30602e-06 0)
(2.97092e-05 -1.44697e-05 0)
(5.92367e-05 -1.41799e-05 0)
(8.05547e-05 -9.73242e-06 0)
(8.53982e-05 -3.42422e-06 0)
(7.05299e-05 3.54547e-06 0)
(3.48279e-05 1.0563e-05 0)
(-2.16757e-05 1.73104e-05 0)
(-9.82259e-05 2.36254e-05 0)
(-0.000193633 2.94266e-05 0)
(-0.000306453 3.46758e-05 0)
(-0.000435088 3.93583e-05 0)
(-0.00057786 4.34726e-05 0)
(-0.000733048 4.70256e-05 0)
(-0.000898925 5.00291e-05 0)
(-0.00107377 5.24983e-05 0)
(-0.00125591 5.44502e-05 0)
(-0.00144368 5.59034e-05 0)
(-0.00163548 5.68774e-05 0)
(-0.00182976 5.73925e-05 0)
(-0.00202502 5.74689e-05 0)
(-0.00221984 5.71271e-05 0)
(-0.00241282 5.63879e-05 0)
(-0.00260267 5.52715e-05 0)
(-0.00278815 5.37987e-05 0)
(-0.00296806 5.19897e-05 0)
(-0.0031413 4.98648e-05 0)
(-0.00330683 4.74442e-05 0)
(-0.00346366 4.47478e-05 0)
(-0.00361087 4.17955e-05 0)
(-0.00374764 3.86072e-05 0)
(-0.00387318 3.52029e-05 0)
(-0.00398679 3.16025e-05 0)
(-0.00408782 2.7826e-05 0)
(-0.00417571 2.38937e-05 0)
(-0.00424996 1.98261e-05 0)
(-0.00431015 1.56439e-05 0)
(-0.00435592 1.13681e-05 0)
(-0.004387 7.02017e-06 0)
(-0.00440317 2.62198e-06 0)
(-0.00440431 -1.80422e-06 0)
(-0.00439037 -6.23568e-06 0)
(-0.00436138 -1.06492e-05 0)
(-0.00431745 -1.5021e-05 0)
(-0.00425876 -1.9327e-05 0)
(-0.00418561 -2.35424e-05 0)
(-0.00409834 -2.76423e-05 0)
(-0.0039974 -3.16013e-05 0)
(-0.00388333 -3.53936e-05 0)
(-0.00375675 -3.89932e-05 0)
(-0.00361836 -4.23741e-05 0)
(-0.00346895 -4.551e-05 0)
(-0.00330942 -4.8375e-05 0)
(-0.00314073 -5.0943e-05 0)
(-0.00296392 -5.31886e-05 0)
(-0.00278014 -5.50865e-05 0)
(-0.00259061 -5.66125e-05 0)
(-0.00239661 -5.77426e-05 0)
(-0.00219952 -5.84543e-05 0)
(-0.00200077 -5.87256e-05 0)
(-0.00180186 -5.85363e-05 0)
(-0.00160436 -5.78673e-05 0)
(-0.00140988 -5.67012e-05 0)
(-0.00122007 -5.50226e-05 0)
(-0.00103663 -5.28181e-05 0)
(-0.000861278 -5.00765e-05 0)
(-0.000695744 -4.67895e-05 0)
(-0.000541756 -4.29523e-05 0)
(-0.000401023 -3.85648e-05 0)
(-0.000275208 -3.36331e-05 0)
(-0.000165895 -2.81722e-05 0)
(-7.45444e-05 -2.22113e-05 0)
(-2.42317e-06 -1.58042e-05 0)
(4.95001e-05 -9.04834e-06 0)
(8.07297e-05 -2.12356e-06 0)
(9.15282e-05 4.63608e-06 0)
(8.33399e-05 1.06065e-05 0)
(5.97315e-05 1.45931e-05 0)
(2.92133e-05 1.43515e-05 0)
(6.86711e-06 6.87028e-06 0)
(1.44168e-05 -2.98815e-05 0)
(5.14683e-05 -5.152e-05 0)
(8.9725e-05 -4.40676e-05 0)
(0.000103444 -1.90844e-05 0)
(7.69189e-05 1.53217e-05 0)
(2.30006e-06 5.4125e-05 0)
(-0.00012411 9.42479e-05 0)
(-0.000303227 0.000133803 0)
(-0.000534005 0.000171631 0)
(-0.00081408 0.000207017 0)
(-0.00114021 0.000239524 0)
(-0.00150859 0.000268888 0)
(-0.00191503 0.000294967 0)
(-0.00235514 0.000317695 0)
(-0.00282439 0.000337059 0)
(-0.00331823 0.00035309 0)
(-0.00383212 0.000365844 0)
(-0.00436157 0.000375396 0)
(-0.0049022 0.00038184 0)
(-0.00544971 0.000385278 0)
(-0.00599997 0.000385823 0)
(-0.00654896 0.000383591 0)
(-0.00709286 0.000378706 0)
(-0.00762798 0.000371292 0)
(-0.00815081 0.000361478 0)
(-0.00865802 0.000349394 0)
(-0.00914648 0.000335171 0)
(-0.00961321 0.000318941 0)
(-0.0100554 0.000300837 0)
(-0.0104706 0.000280992 0)
(-0.0108562 0.000259541 0)
(-0.0112102 0.000236621 0)
(-0.0115305 0.000212367 0)
(-0.0118153 0.000186917 0)
(-0.0120629 0.000160412 0)
(-0.012272 0.000132991 0)
(-0.0124414 0.000104799 0)
(-0.0125701 7.59807e-05 0)
(-0.0126573 4.66843e-05 0)
(-0.0127024 1.70601e-05 0)
(-0.0127051 -1.27386e-05 0)
(-0.0126652 -4.25559e-05 0)
(-0.0125828 -7.22329e-05 0)
(-0.0124584 -0.000101608 0)
(-0.0122924 -0.000130517 0)
(-0.0120856 -0.000158793 0)
(-0.0118391 -0.000186268 0)
(-0.0115541 -0.00021277 0)
(-0.0112323 -0.000238129 0)
(-0.0108752 -0.00026217 0)
(-0.0104851 -0.000284722 0)
(-0.010064 -0.000305612 0)
(-0.0096146 -0.000324669 0)
(-0.00913952 -0.000341724 0)
(-0.00864176 -0.000356614 0)
(-0.00812451 -0.000369176 0)
(-0.00759119 -0.000379256 0)
(-0.00704541 -0.000386705 0)
(-0.006491 -0.000391383 0)
(-0.00593196 -0.000393159 0)
(-0.00537246 -0.000391913 0)
(-0.00481682 -0.000387539 0)
(-0.00426947 -0.000379943 0)
(-0.00373496 -0.000369051 0)
(-0.00321791 -0.000354808 0)
(-0.00272295 -0.000337182 0)
(-0.00225474 -0.00031617 0)
(-0.00181783 -0.000291804 0)
(-0.00141671 -0.000264163 0)
(-0.0010556 -0.000233384 0)
(-0.000738438 -0.00019969 0)
(-0.000468695 -0.00016342 0)
(-0.000249159 -0.00012509 0)
(-8.16592e-05 -8.54918e-05 0)
(3.33759e-05 -4.58534e-05 0)
(9.75329e-05 -8.11202e-06 0)
(0.000115194 2.46481e-05 0)
(9.48233e-05 4.74815e-05 0)
(5.25907e-05 5.25524e-05 0)
(1.4341e-05 2.9201e-05 0)
(1.42707e-05 -5.94272e-05 0)
(4.45126e-05 -8.98784e-05 0)
(6.11922e-05 -6.0429e-05 0)
(3.55121e-05 6.75694e-06 0)
(-5.08897e-05 9.62673e-05 0)
(-0.000208227 0.00019745 0)
(-0.000441832 0.000303076 0)
(-0.000753407 0.00040831 0)
(-0.00114192 0.00050993 0)
(-0.00160436 0.000605795 0)
(-0.00213632 0.000694489 0)
(-0.0027324 0.000775097 0)
(-0.00338655 0.000847051 0)
(-0.00409227 0.000910027 0)
(-0.00484278 0.000963883 0)
(-0.0056312 0.0010086 0)
(-0.00645057 0.00104427 0)
(-0.00729399 0.00107103 0)
(-0.00815467 0.0010891 0)
(-0.00902593 0.00109873 0)
(-0.00990129 0.0011002 0)
(-0.0107745 0.00109382 0)
(-0.0116394 0.00107991 0)
(-0.0124903 0.00105881 0)
(-0.0133217 0.00103087 0)
(-0.0141282 0.000996454 0)
(-0.0149048 0.000955926 0)
(-0.0156468 0.000909658 0)
(-0.0163499 0.000858025 0)
(-0.0170099 0.000801409 0)
(-0.017623 0.000740192 0)
(-0.0181856 0.000674765 0)
(-0.0186946 0.000605518 0)
(-0.0191471 0.00053285 0)
(-0.0195405 0.000457161 0)
(-0.0198726 0.000378859 0)
(-0.0201415 0.000298358 0)
(-0.0203456 0.000216077 0)
(-0.0204837 0.000132442 0)
(-0.0205548 4.78876e-05 0)
(-0.0205584 -3.71461e-05 0)
(-0.0204944 -0.00012221 0)
(-0.0203629 -0.000206849 0)
(-0.0201645 -0.000290598 0)
(-0.0199 -0.000372989 0)
(-0.0195708 -0.000453544 0)
(-0.0191786 -0.000531782 0)
(-0.0187253 -0.000607218 0)
(-0.0182135 -0.000679364 0)
(-0.0176459 -0.000747729 0)
(-0.0170258 -0.000811826 0)
(-0.0163567 -0.000871168 0)
(-0.0156426 -0.000925276 0)
(-0.014888 -0.000973678 0)
(-0.0140973 -0.00101591 0)
(-0.0132759 -0.00105153 0)
(-0.0124289 -0.00108011 0)
(-0.0115621 -0.00110124 0)
(-0.0106816 -0.00111453 0)
(-0.00979356 -0.00111965 0)
(-0.00890458 -0.00111626 0)
(-0.00802139 -0.00110409 0)
(-0.00715089 -0.00108292 0)
(-0.00630013 -0.00105258 0)
(-0.00547623 -0.00101294 0)
(-0.00468633 -0.000963985 0)
(-0.0039375 -0.000905771 0)
(-0.00323667 -0.000838473 0)
(-0.00259051 -0.000762413 0)
(-0.00200528 -0.000678103 0)
(-0.00148667 -0.000586308 0)
(-0.00103959 -0.00048814 0)
(-0.000667785 -0.000385206 0)
(-0.00037352 -0.000279825 0)
(-0.000156969 -0.000175361 0)
(-1.5508e-05 -7.67308e-05 0)
(5.71086e-05 8.86951e-06 0)
(7.19052e-05 7.10167e-05 0)
(4.79566e-05 9.48892e-05 0)
(1.46716e-05 5.97779e-05 0)
(1.00439e-05 -8.11669e-05 0)
(2.0371e-05 -0.000104334 0)
(-4.33938e-06 -3.51011e-05 0)
(-9.08502e-05 9.371e-05 0)
(-0.0002573 0.00025934 0)
(-0.000514633 0.000445248 0)
(-0.000868754 0.000639573 0)
(-0.00132162 0.00083396 0)
(-0.00187206 0.00102256 0)
(-0.00251657 0.0012013 0)
(-0.00324984 0.00136735 0)
(-0.00406528 0.00151883 0)
(-0.00495536 0.00165446 0)
(-0.00591191 0.00177349 0)
(-0.00692634 0.0018755 0)
(-0.00798979 0.00196034 0)
(-0.00909331 0.00202807 0)
(-0.0102279 0.00207889 0)
(-0.0113848 0.00211315 0)
(-0.0125551 0.00213126 0)
(-0.0137303 0.00213372 0)
(-0.0149022 0.00212107 0)
(-0.0160627 0.00209393 0)
(-0.0172042 0.0020529 0)
(-0.0183192 0.00199867 0)
(-0.0194007 0.00193189 0)
(-0.020442 0.00185327 0)
(-0.0214369 0.00176352 0)
(-0.0223794 0.00166337 0)
(-0.0232641 0.00155354 0)
(-0.0240858 0.00143478 0)
(-0.0248398 0.00130785 0)
(-0.0255219 0.0011735 0)
(-0.0261281 0.00103251 0)
(-0.0266551 0.000885669 0)
(-0.0270998 0.000733761 0)
(-0.0274597 0.000577595 0)
(-0.0277326 0.00041799 0)
(-0.0279171 0.000255778 0)
(-0.0280118 9.18049e-05 0)
(-0.028016 -7.3071e-05 0)
(-0.0279296 -0.000237976 0)
(-0.0277527 -0.000402023 0)
(-0.0274862 -0.000564313 0)
(-0.0271312 -0.000723932 0)
(-0.0266896 -0.000879959 0)
(-0.0261635 -0.00103146 0)
(-0.0255557 -0.0011775 0)
(-0.0248696 -0.00131713 0)
(-0.0241089 -0.00144942 0)
(-0.0232778 -0.00157341 0)
(-0.0223813 -0.00168819 0)
(-0.0214246 -0.00179283 0)
(-0.0204135 -0.00188642 0)
(-0.0193543 -0.0019681 0)
(-0.0182537 -0.00203701 0)
(-0.0171189 -0.00209234 0)
(-0.0159574 -0.00213333 0)
(-0.0147773 -0.00215926 0)
(-0.0135867 -0.00216949 0)
(-0.0123943 -0.00216343 0)
(-0.011209 -0.00214059 0)
(-0.0100399 -0.00210058 0)
(-0.00889618 -0.00204312 0)
(-0.00778708 -0.00196806 0)
(-0.00672188 -0.00187542 0)
(-0.0057097 -0.0017654 0)
(-0.00475942 -0.00163843 0)
(-0.00387951 -0.00149527 0)
(-0.00307785 -0.00133701 0)
(-0.00236154 -0.00116526 0)
(-0.00173653 -0.000982284 0)
(-0.00120736 -0.000791222 0)
(-0.000776626 -0.000596447 0)
(-0.00044446 -0.000404035 0)
(-0.000207809 -0.000222454 0)
(-5.96686e-05 -6.34905e-05 0)
(1.19028e-05 5.66777e-05 0)
(2.6092e-05 0.000116126 0)
(1.08995e-05 8.38096e-05 0)
(4.01277e-06 -8.69977e-05 0)
(-1.30276e-05 -7.9448e-05 0)
(-9.19958e-05 5.00377e-05 0)
(-0.000253966 0.000259722 0)
(-0.000514774 0.000520218 0)
(-0.000884865 0.000809474 0)
(-0.00136981 0.0011111 0)
(-0.00197123 0.00141311 0)
(-0.00268753 0.00170679 0)
(-0.00351462 0.00198586 0)
(-0.00444639 0.00224583 0)
(-0.00547524 0.00248356 0)
(-0.00659241 0.0026969 0)
(-0.00778835 0.00288445 0)
(-0.00905294 0.00304541 0)
(-0.0103757 0.00317938 0)
(-0.011746 0.00328634 0)
(-0.013153 0.00336651 0)
(-0.0145861 0.00342034 0)
(-0.0160347 0.00344841 0)
(-0.0174885 0.00345147 0)
(-0.0189374 0.00343033 0)
(-0.0203718 0.00338591 0)
(-0.021782 0.0033192 0)
(-0.0231593 0.00323121 0)
(-0.0244948 0.00312302 0)
(-0.0257806 0.00299574 0)
(-0.0270088 0.00285049 0)
(-0.0281721 0.00268844 0)
(-0.0292639 0.00251076 0)
(-0.0302779 0.00231866 0)
(-0.0312081 0.00211334 0)
(-0.0320495 0.00189604 0)
(-0.0327972 0.00166802 0)
(-0.033447 0.00143054 0)
(-0.0339952 0.00118488 0)
(-0.0344388 0.000932367 0)
(-0.034775 0.000674315 0)
(-0.035002 0.000412077 0)
(-0.0351182 0.000147023 0)
(-0.0351228 -0.000119454 0)
(-0.0350156 -0.000385939 0)
(-0.0347968 -0.000650997 0)
(-0.0344674 -0.000913173 0)
(-0.034029 -0.00117099 0)
(-0.0334838 -0.00142297 0)
(-0.0328344 -0.0016676 0)
(-0.0320844 -0.00190336 0)
(-0.0312378 -0.00212876 0)
(-0.0302992 -0.00234227 0)
(-0.0292739 -0.00254239 0)
(-0.0281679 -0.00272763 0)
(-0.0269877 -0.00289651 0)
(-0.0257404 -0.0030476 0)
(-0.0244335 -0.00317951 0)
(-0.0230755 -0.0032909 0)
(-0.0216749 -0.00338047 0)
(-0.0202411 -0.00344703 0)
(-0.0187838 -0.00348947 0)
(-0.017313 -0.00350679 0)
(-0.0158391 -0.00349809 0)
(-0.014373 -0.00346264 0)
(-0.0129256 -0.00339987 0)
(-0.0115079 -0.00330939 0)
(-0.0101312 -0.00319107 0)
(-0.00880642 -0.00304501 0)
(-0.00754448 -0.00287166 0)
(-0.0063559 -0.00267184 0)
(-0.00525067 -0.00244686 0)
(-0.00423802 -0.00219863 0)
(-0.0033262 -0.00192982 0)
(-0.00252211 -0.00164412 0)
(-0.00183097 -0.00134649 0)
(-0.00125588 -0.00104365 0)
(-0.000797232 -0.000744642 0)
(-0.000452174 -0.000461601 0)
(-0.00021386 -0.000210833 0)
(-7.06384e-05 -1.39427e-05 0)
(-5.25173e-06 0.00010065 0)
(5.25623e-06 9.30863e-05 0)
(-2.66979e-06 -7.37072e-05 0)
(-5.09333e-05 -7.2848e-06 0)
(-0.000191869 0.000205518 0)
(-0.000438703 0.000516336 0)
(-0.000803541 0.000890239 0)
(-0.00129538 0.00130032 0)
(-0.00191872 0.00172599 0)
(-0.00267426 0.00215177 0)
(-0.00355968 0.00256607 0)
(-0.00457009 0.00296028 0)
(-0.00569854 0.00332811 0)
(-0.00693646 0.00366498 0)
(-0.00827403 0.00396772 0)
(-0.00970048 0.00423417 0)
(-0.0112044 0.00446299 0)
(-0.0127738 0.00465349 0)
(-0.0143966 0.00480547 0)
(-0.0160606 0.00491913 0)
(-0.0177535 0.00499499 0)
(-0.0194631 0.00503382 0)
(-0.0211776 0.0050366 0)
(-0.0228853 0.00500444 0)
(-0.0245749 0.00493862 0)
(-0.0262355 0.00484051 0)
(-0.0278567 0.00471156 0)
(-0.0294283 0.00455329 0)
(-0.0309409 0.00436729 0)
(-0.0323855 0.00415517 0)
(-0.0337536 0.00391862 0)
(-0.0350373 0.00365934 0)
(-0.0362293 0.00337906 0)
(-0.0373227 0.00307955 0)
(-0.0383115 0.00276261 0)
(-0.03919 0.00243006 0)
(-0.0399534 0.00208375 0)
(-0.0405973 0.00172556 0)
(-0.0411181 0.0013574 0)
(-0.0415127 0.000981216 0)
(-0.0417789 0.000598968 0)
(-0.041915 0.000212659 0)
(-0.0419199 -0.000175678 0)
(-0.0417934 -0.000563981 0)
(-0.0415359 -0.000950157 0)
(-0.0411484 -0.00133209 0)
(-0.0406329 -0.00170763 0)
(-0.0399918 -0.00207462 0)
(-0.0392285 -0.00243087 0)
(-0.038347 -0.0027742 0)
(-0.037352 -0.00310241 0)
(-0.0362489 -0.0034133 0)
(-0.035044 -0.00370471 0)
(-0.0337441 -0.00397448 0)
(-0.0323569 -0.0042205 0)
(-0.0308906 -0.0044407 0)
(-0.0293542 -0.00463307 0)
(-0.0277572 -0.00479571 0)
(-0.0261097 -0.00492678 0)
(-0.0244227 -0.00502458 0)
(-0.0227071 -0.00508754 0)
(-0.0209748 -0.00511425 0)
(-0.0192377 -0.00510349 0)
(-0.0175084 -0.00505426 0)
(-0.0157993 -0.00496581 0)
(-0.0141233 -0.00483767 0)
(-0.012493 -0.00466974 0)
(-0.0109211 -0.00446228 0)
(-0.00942009 -0.00421605 0)
(-0.00800179 -0.00393238 0)
(-0.00667752 -0.00361328 0)
(-0.00545773 -0.00326161 0)
(-0.0043517 -0.00288129 0)
(-0.00336726 -0.00247761 0)
(-0.0025104 -0.00205752 0)
(-0.00178487 -0.00163022 0)
(-0.00119175 -0.00120775 0)
(-0.000728911 -0.000805819 0)
(-0.00039043 -0.000444953 0)
(-0.000165875 -0.000151601 0)
(-4.13375e-05 4.03089e-05 0)
(-1.10036e-06 8.42571e-05 0)
(-9.4459e-06 -4.00509e-05 0)
(-9.05856e-05 0.000116338 0)
(-0.000297569 0.000437593 0)
(-0.000634766 0.000870856 0)
(-0.00110968 0.00137687 0)
(-0.00172918 0.00192465 0)
(-0.00249608 0.00248994 0)
(-0.00340971 0.00305403 0)
(-0.00446663 0.00360256 0)
(-0.00566096 0.00412465 0)
(-0.00698479 0.00461212 0)
(-0.00842856 0.00505894 0)
(-0.0099814 0.00546078 0)
(-0.0116314 0.00581463 0)
(-0.013366 0.00611856 0)
(-0.015172 0.00637147 0)
(-0.017036 0.00657296 0)
(-0.0189443 0.00672316 0)
(-0.0208834 0.00682263 0)
(-0.0228397 0.00687231 0)
(-0.0247999 0.00687342 0)
(-0.026751 0.00682741 0)
(-0.0286803 0.00673591 0)
(-0.0305756 0.00660072 0)
(-0.032425 0.00642376 0)
(-0.0342174 0.00620706 0)
(-0.0359419 0.00595275 0)
(-0.0375884 0.00566299 0)
(-0.0391474 0.00534005 0)
(-0.0406099 0.00498622 0)
(-0.0419676 0.00460386 0)
(-0.0432128 0.00419538 0)
(-0.0443387 0.00376319 0)
(-0.0453389 0.0033098 0)
(-0.0462078 0.00283772 0)
(-0.0469407 0.0023495 0)
(-0.0475333 0.00184776 0)
(-0.0479823 0.00133513 0)
(-0.0482849 0.000814296 0)
(-0.0484395 0.000287988 0)
(-0.0484447 -0.00024103 0)
(-0.0483004 -0.000769948 0)
(-0.048007 -0.00129592 0)
(-0.0475657 -0.00181607 0)
(-0.0469787 -0.00232748 0)
(-0.0462488 -0.00282721 0)
(-0.0453797 -0.00331231 0)
(-0.0443761 -0.0037798 0)
(-0.0432432 -0.00422671 0)
(-0.0419873 -0.00465009 0)
(-0.0406153 -0.00504699 0)
(-0.0391351 -0.00541452 0)
(-0.0375551 -0.00574981 0)
(-0.0358848 -0.00605011 0)
(-0.0341341 -0.00631272 0)
(-0.0323139 -0.00653507 0)
(-0.0304356 -0.00671473 0)
(-0.0285112 -0.00684944 0)
(-0.0265534 -0.00693711 0)
(-0.0245751 -0.00697591 0)
(-0.02259 -0.00696425 0)
(-0.0206118 -0.00690085 0)
(-0.0186547 -0.00678478 0)
(-0.0167328 -0.00661552 0)
(-0.0148603 -0.00639301 0)
(-0.0130513 -0.00611774 0)
(-0.0113194 -0.00579087 0)
(-0.00967791 -0.00541428 0)
(-0.00813932 -0.0049908 0)
(-0.00671517 -0.00452435 0)
(-0.00541576 -0.00402022 0)
(-0.00424988 -0.00348537 0)
(-0.00322443 -0.00292882 0)
(-0.00234409 -0.00236225 0)
(-0.00161093 -0.00180058 0)
(-0.00102406 -0.00126289 0)
(-0.000579054 -0.000773439 0)
(-0.000267381 -0.000362809 0)
(-7.93684e-05 -6.93059e-05 0)
(-7.59488e-06 5.59509e-05 0)
(-1.60538e-05 1.4229e-05 0)
(-0.000130422 0.000293247 0)
(-0.000405121 0.000749526 0)
(-0.000835399 0.00132746 0)
(-0.00142373 0.00198461 0)
(-0.00217437 0.00268676 0)
(-0.00308801 0.00340653 0)
(-0.00416223 0.00412236 0)
(-0.00539217 0.00481737 0)
(-0.0067707 0.00547851 0)
(-0.00828882 0.00609577 0)
(-0.00993588 0.00666166 0)
(-0.0116999 0.00717064 0)
(-0.0135681 0.00761884 0)
(-0.0155265 0.00800364 0)
(-0.017561 0.00832354 0)
(-0.0196568 0.00857785 0)
(-0.0217992 0.00876661 0)
(-0.0239734 0.00889043 0)
(-0.0261645 0.00895039 0)
(-0.028358 0.00894795 0)
(-0.0305397 0.00888489 0)
(-0.0326956 0.00876325 0)
(-0.0348123 0.00858527 0)
(-0.0368768 0.0083534 0)
(-0.0388768 0.00807019 0)
(-0.0408005 0.00773836 0)
(-0.0426366 0.0073607 0)
(-0.0443746 0.00694011 0)
(-0.0460047 0.00647954 0)
(-0.0475176 0.00598204 0)
(-0.048905 0.00545071 0)
(-0.0501592 0.0048887 0)
(-0.0512732 0.00429923 0)
(-0.0522409 0.00368556 0)
(-0.053057 0.00305102 0)
(-0.0537168 0.00239899 0)
(-0.0542166 0.00173289 0)
(-0.0545535 0.0010562 0)
(-0.0547255 0.000372465 0)
(-0.0547313 -0.000314726 0)
(-0.0545706 -0.00100173 0)
(-0.0542439 -0.00168487 0)
(-0.0537526 -0.00236041 0)
(-0.053099 -0.00302457 0)
(-0.0522864 -0.00367356 0)
(-0.0513188 -0.00430355 0)
(-0.0502014 -0.00491072 0)
(-0.0489399 -0.00549122 0)
(-0.0475412 -0.00604123 0)
(-0.046013 -0.00655698 0)
(-0.044364 -0.00703474 0)
(-0.0426035 -0.00747084 0)
(-0.0407418 -0.00786172 0)
(-0.0387901 -0.00820395 0)
(-0.03676 -0.00849425 0)
(-0.0346642 -0.00872951 0)
(-0.032516 -0.00890687 0)
(-0.030329 -0.0090237 0)
(-0.0281178 -0.00907768 0)
(-0.025897 -0.00906684 0)
(-0.0236818 -0.00898963 0)
(-0.0214876 -0.00884492 0)
(-0.0193298 -0.00863214 0)
(-0.0172241 -0.00835134 0)
(-0.0151856 -0.00800326 0)
(-0.0132293 -0.00758947 0)
(-0.0113697 -0.00711252 0)
(-0.00962035 -0.00657609 0)
(-0.00799389 -0.00598523 0)
(-0.00650171 -0.00534664 0)
(-0.00515363 -0.00466897 0)
(-0.00395764 -0.00396333 0)
(-0.00291956 -0.00324372 0)
(-0.00204279 -0.0025278 0)
(-0.00132807 -0.00183764 0)
(-0.000772899 -0.00120076 0)
(-0.000371118 -0.000651088 0)
(-0.000117738 -0.000230224 0)
(-1.39512e-05 7.81064e-06 0)
(-2.23839e-05 8.88358e-05 0)
(-0.000169593 0.000523732 0)
(-0.000512138 0.00114248 0)
(-0.00103631 0.00188803 0)
(-0.0017394 0.00271577 0)
(-0.00262281 0.003589 0)
(-0.0036848 0.00447781 0)
(-0.0049209 0.0053582 0)
(-0.00632453 0.00621106 0)
(-0.00788716 0.00702135 0)
(-0.0095985 0.00777736 0)
(-0.0114467 0.00847015 0)
(-0.0134188 0.00909305 0)
(-0.0155006 0.00964127 0)
(-0.0176775 0.0101115 0)
(-0.0199339 0.0105019 0)
(-0.0222541 0.0108113 0)
(-0.0246223 0.0110398 0)
(-0.0270224 0.011188 0)
(-0.0294385 0.011257 0)
(-0.0318551 0.0112487 0)
(-0.0342566 0.011165 0)
(-0.0366282 0.0110086 0)
(-0.0389552 0.0107821 0)
(-0.0412238 0.0104884 0)
(-0.0434205 0.0101308 0)
(-0.0455325 0.00971255 0)
(-0.0475477 0.00923715 0)
(-0.0494547 0.00870815 0)
(-0.0512428 0.00812926 0)
(-0.052902 0.00750426 0)
(-0.0544233 0.006837 0)
(-0.0557983 0.00613143 0)
(-0.0570195 0.00539157 0)
(-0.0580802 0.00462149 0)
(-0.0589746 0.00382536 0)
(-0.0596978 0.0030074 0)
(-0.0602456 0.0021719 0)
(-0.0606149 0.00132321 0)
(-0.0608036 0.000465764 0)
(-0.0608102 -0.000395951 0)
(-0.0606345 -0.00125739 0)
(-0.0602769 -0.00211393 0)
(-0.059739 -0.00296092 0)
(-0.0590234 -0.00379366 0)
(-0.0581335 -0.0046074 0)
(-0.0570738 -0.00539737 0)
(-0.0558496 -0.00615879 0)
(-0.0544676 -0.0068869 0)
(-0.0529349 -0.00757695 0)
(-0.05126 -0.00822423 0)
(-0.0494521 -0.0088241 0)
(-0.0475215 -0.00937204 0)
(-0.0454793 -0.00986362 0)
(-0.0433375 -0.0102946 0)
(-0.0411088 -0.010661 0)
(-0.0388068 -0.0109588 0)
(-0.0364458 -0.0111847 0)
(-0.0340407 -0.0113354 0)
(-0.0316071 -0.0114081 0)
(-0.0291607 -0.0114003 0)
(-0.026718 -0.0113103 0)
(-0.0242955 -0.0111368 0)
(-0.02191 -0.0108791 0)
(-0.0195781 -0.0105373 0)
(-0.0173162 -0.0101126 0)
(-0.0151405 -0.00960684 0)
(-0.0130666 -0.00902335 0)
(-0.0111091 -0.00836669 0)
(-0.00928191 -0.00764306 0)
(-0.00759747 -0.00686053 0)
(-0.00606679 -0.00602947 0)
(-0.00469908 -0.0051629 0)
(-0.00350154 -0.00427709 0)
(-0.00247916 -0.00339212 0)
(-0.0016346 -0.00253271 0)
(-0.0009676 -0.00172909 0)
(-0.000474641 -0.00101784 0)
(-0.000155565 -0.000442908 0)
(-2.00494e-05 -5.99385e-05 0)
(-2.84024e-05 0.000183194 0)
(-0.000207675 0.000807171 0)
(-0.00061726 0.00161625 0)
(-0.00123487 0.00255287 0)
(-0.0020527 0.00357103 0)
(-0.00306916 0.00463225 0)
(-0.00427989 0.0057046 0)
(-0.00567816 0.00676208 0)
(-0.00725549 0.00778365 0)
(-0.00900173 0.0087525 0)
(-0.0109052 0.00965537 0)
(-0.0129527 0.010482 0)
(-0.01513 0.0112246 0)
(-0.0174221 0.0118776 0)
(-0.0198129 0.0124369 0)
(-0.0222859 0.0129002 0)
(-0.0248245 0.0132663 0)
(-0.0274117 0.0135349 0)
(-0.0300303 0.0137067 0)
(-0.0326635 0.0137831 0)
(-0.0352946 0.0137661 0)
(-0.0379072 0.013658 0)
(-0.0404854 0.0134619 0)
(-0.0430136 0.013181 0)
(-0.0454769 0.0128187 0)
(-0.047861 0.0123789 0)
(-0.0501523 0.0118656 0)
(-0.0523378 0.0112829 0)
(-0.0544052 0.0106352 0)
(-0.0563433 0.00992692 0)
(-0.0581413 0.00916263 0)
(-0.0597896 0.00834704 0)
(-0.0612791 0.00748491 0)
(-0.0626018 0.00658113 0)
(-0.0637506 0.00564067 0)
(-0.0647193 0.00466856 0)
(-0.0655026 0.00366996 0)
(-0.0660961 0.00265008 0)
(-0.0664965 0.00161422 0)
(-0.0667014 0.000567755 0)
(-0.0667092 -0.000483852 0)
(-0.0665198 -0.00153507 0)
(-0.0661336 -0.0025803 0)
(-0.0655523 -0.00361388 0)
(-0.0647786 -0.00463011 0)
(-0.0638162 -0.00562321 0)
(-0.0626699 -0.00658742 0)
(-0.0613454 -0.00751694 0)
(-0.0598497 -0.008406 0)
(-0.0581906 -0.00924884 0)
(-0.056377 -0.0100398 0)
(-0.0544189 -0.0107732 0)
(-0.0523271 -0.0114437 0)
(-0.0501135 -0.0120458 0)
(-0.0477909 -0.0125745 0)
(-0.045373 -0.013025 0)
(-0.0428742 -0.0133925 0)
(-0.0403097 -0.013673 0)
(-0.0376955 -0.0138625 0)
(-0.035048 -0.0139578 0)
(-0.0323843 -0.0139559 0)
(-0.0297217 -0.0138548 0)
(-0.027078 -0.013653 0)
(-0.024471 -0.0133497 0)
(-0.0219183 -0.0129452 0)
(-0.0194377 -0.0124409 0)
(-0.0170464 -0.0118392 0)
(-0.014761 -0.011144 0)
(-0.0125975 -0.0103608 0)
(-0.0105708 -0.0094969 0)
(-0.00869466 -0.00856178 0)
(-0.00698128 -0.00756738 0)
(-0.00544131 -0.00652857 0)
(-0.00408352 -0.00546361 0)
(-0.0029147 -0.00439481 0)
(-0.00193963 -0.00334912 0)
(-0.0011605 -0.00235901 0)
(-0.00057655 -0.00146309 0)
(-0.000192399 -0.000706884 0)
(-2.58497e-05 -0.000146775 0)
(-3.41131e-05 0.000296614 0)
(-0.000244487 0.00114244 0)
(-0.00071978 0.00216979 0)
(-0.00142961 0.00332122 0)
(-0.00236124 0.00454997 0)
(-0.00351009 0.0058163 0)
(-0.00486907 0.00708678 0)
(-0.00642906 0.00833378 0)
(-0.00817953 0.00953464 0)
(-0.0101086 0.010671 0)
(-0.0122029 0.0117283 0)
(-0.014448 0.0126951 0)
(-0.0168283 0.0135625 0)
(-0.0193276 0.0143241 0)
(-0.0219288 0.0149755 0)
(-0.0246143 0.0155136 0)
(-0.0273664 0.0159371 0)
(-0.0301669 0.0162456 0)
(-0.0329981 0.0164398 0)
(-0.0358418 0.0165214 0)
(-0.0386806 0.0164924 0)
(-0.041497 0.0163558 0)
(-0.0442742 0.016115 0)
(-0.0469959 0.0157736 0)
(-0.0496462 0.0153359 0)
(-0.0522101 0.0148062 0)
(-0.054673 0.0141893 0)
(-0.0570214 0.0134901 0)
(-0.0592422 0.0127137 0)
(-0.0613235 0.0118654 0)
(-0.063254 0.0109505 0)
(-0.0650233 0.00997475 0)
(-0.066622 0.0089437 0)
(-0.0680416 0.00786316 0)
(-0.0692746 0.00673905 0)
(-0.0703143 0.00557737 0)
(-0.0711551 0.00438422 0)
(-0.0717925 0.0031658 0)
(-0.0722229 0.00192843 0)
(-0.0724436 0.00067849 0)
(-0.0724533 -0.000577525 0)
(-0.0722514 -0.00183304 0)
(-0.0718387 -0.00308142 0)
(-0.0712168 -0.00431592 0)
(-0.0703886 -0.00552977 0)
(-0.069358 -0.00671613 0)
(-0.06813 -0.00786816 0)
(-0.0667108 -0.00897899 0)
(-0.0651075 -0.0100418 0)
(-0.0633285 -0.0110497 0)
(-0.0613832 -0.011996 0)
(-0.0592821 -0.012874 0)
(-0.0570367 -0.0136774 0)
(-0.0546595 -0.0143998 0)
(-0.0521641 -0.0150352 0)
(-0.0495647 -0.0155777 0)
(-0.0468768 -0.0160222 0)
(-0.0441164 -0.0163635 0)
(-0.0413004 -0.0165972 0)
(-0.0384461 -0.0167193 0)
(-0.0355716 -0.0167266 0)
(-0.0326953 -0.0166166 0)
(-0.0298358 -0.0163876 0)
(-0.0270121 -0.0160388 0)
(-0.024243 -0.0155706 0)
(-0.0215472 -0.0149845 0)
(-0.0189431 -0.0142836 0)
(-0.0164485 -0.0134723 0)
(-0.0140805 -0.0125569 0)
(-0.0118552 -0.011546 0)
(-0.00978781 -0.0104501 0)
(-0.00789187 -0.00928283 0)
(-0.00617957 -0.00806065 0)
(-0.00466141 -0.00680367 0)
(-0.00334613 -0.0055361 0)
(-0.0022408 -0.00428681 0)
(-0.00135012 -0.00309008 0)
(-0.000676129 -0.00198601 0)
(-0.000228052 -0.00102116 0)
(-3.13522e-05 -0.00025205 0)
(-3.95373e-05 0.000428379 0)
(-0.000279999 0.00152817 0)
(-0.000819414 0.00280158 0)
(-0.0016198 0.00419169 0)
(-0.00266374 0.00565142 0)
(-0.00394369 0.00714022 0)
(-0.00544985 0.00862355 0)
(-0.00717059 0.0100725 0)
(-0.00909323 0.0114631 0)
(-0.011204 0.0127758 0)
(-0.0134879 0.0139948 0)
(-0.0159289 0.0151075 0)
(-0.0185103 0.0161043 0)
(-0.0212144 0.0169781 0)
(-0.024023 0.0177237 0)
(-0.0269175 0.0183379 0)
(-0.0298791 0.018819 0)
(-0.0328887 0.0191667 0)
(-0.0359274 0.0193816 0)
(-0.0389764 0.0194657 0)
(-0.0420171 0.0194213 0)
(-0.0450314 0.0192517 0)
(-0.0480015 0.0189609 0)
(-0.0509103 0.018553 0)
(-0.0537413 0.0180329 0)
(-0.0564785 0.0174058 0)
(-0.0591068 0.0166769 0)
(-0.0616119 0.0158522 0)
(-0.0639802 0.0149374 0)
(-0.066199 0.0139387 0)
(-0.0682566 0.0128624 0)
(-0.0701422 0.0117151 0)
(-0.0718457 0.0105033 0)
(-0.0733584 0.00923373 0)
(-0.0746721 0.00791334 0)
(-0.0757802 0.00654913 0)
(-0.0766765 0.0051482 0)
(-0.0773564 0.00371782 0)
(-0.0778159 0.00226533 0)
(-0.0780526 0.00079819 0)
(-0.0780647 -0.00067602 0)
(-0.0778518 -0.00214963 0)
(-0.0774145 -0.0036149 0)
(-0.0767547 -0.00506396 0)
(-0.0758752 -0.00648893 0)
(-0.0747802 -0.00788184 0)
(-0.0734749 -0.0092347 0)
(-0.0719657 -0.0105395 0)
(-0.0702602 -0.0117883 0)
(-0.068367 -0.0129731 0)
(-0.066296 -0.0140862 0)
(-0.0640582 -0.0151197 0)
(-0.0616656 -0.0160663 0)
(-0.0591313 -0.0169185 0)
(-0.0564696 -0.0176694 0)
(-0.0536954 -0.0183122 0)
(-0.0508248 -0.0188409 0)
(-0.0478747 -0.0192495 0)
(-0.0448628 -0.0195329 0)
(-0.0418073 -0.0196866 0)
(-0.0387272 -0.0197068 0)
(-0.0356418 -0.0195907 0)
(-0.0325709 -0.0193362 0)
(-0.0295342 -0.0189426 0)
(-0.0265518 -0.0184102 0)
(-0.0236435 -0.0177408 0)
(-0.0208286 -0.0169379 0)
(-0.0181263 -0.0160066 0)
(-0.015555 -0.014954 0)
(-0.013132 -0.0137896 0)
(-0.0108737 -0.0125252 0)
(-0.00879554 -0.0111756 0)
(-0.00691116 -0.009759 0)
(-0.00523294 -0.00829702 0)
(-0.00377172 -0.00681554 0)
(-0.0025369 -0.00534504 0)
(-0.00153578 -0.00392121 0)
(-0.000773105 -0.00258532 0)
(-0.000262491 -0.00138451 0)
(-3.65773e-05 -0.000375089 0)
(-4.47041e-05 0.000577795 0)
(-0.00031426 0.00196291 0)
(-0.000916139 0.00350989 0)
(-0.00180523 0.00516254 0)
(-0.00295968 0.00687377 0)
(-0.00436911 0.00860258 0)
(-0.00602098 0.0103137 0)
(-0.00790117 0.0119771 0)
(-0.00999476 0.013568 0)
(-0.012286 0.0150657 0)
(-0.0147582 0.0164533 0)
(-0.0173937 0.0177176 0)
(-0.0201743 0.018848 0)
(-0.0230811 0.0198369 0)
(-0.0260948 0.0206786 0)
(-0.0291954 0.0213697 0)
(-0.0323633 0.0219083 0)
(-0.0355783 0.0222939 0)
(-0.0388206 0.0225276 0)
(-0.0420705 0.0226111 0)
(-0.0453086 0.0225475 0)
(-0.0485158 0.0223403 0)
(-0.0516738 0.021994 0)
(-0.0547646 0.0215134 0)
(-0.0577709 0.0209041 0)
(-0.0606761 0.0201718 0)
(-0.0634646 0.0193227 0)
(-0.0661213 0.0183635 0)
(-0.0686321 0.0173009 0)
(-0.0709839 0.0161419 0)
(-0.0731643 0.0148937 0)
(-0.075162 0.0135639 0)
(-0.0769668 0.0121599 0)
(-0.0785693 0.0106896 0)
(-0.0799613 0.00916086 0)
(-0.0811354 0.00758174 0)
(-0.0820857 0.00596043 0)
(-0.082807 0.00430525 0)
(-0.0832954 0.00262466 0)
(-0.0835481 0.000927234 0)
(-0.0835633 -0.000778325 0)
(-0.0833407 -0.00248321 0)
(-0.0828808 -0.00417851 0)
(-0.0821855 -0.00585521 0)
(-0.0812577 -0.00750424 0)
(-0.0801018 -0.00911645 0)
(-0.0787231 -0.0106827 0)
(-0.0771283 -0.0121937 0)
(-0.0753251 -0.0136405 0)
(-0.0733227 -0.0150138 0)
(-0.0711313 -0.0163048 0)
(-0.0687621 -0.0175045 0)
(-0.0662278 -0.0186043 0)
(-0.063542 -0.0195959 0)
(-0.0607194 -0.0204712 0)
(-0.0577758 -0.0212225 0)
(-0.0547278 -0.0218429 0)
(-0.0515931 -0.0223255 0)
(-0.0483901 -0.0226646 0)
(-0.0451378 -0.0228549 0)
(-0.0418562 -0.0228922 0)
(-0.0385655 -0.022773 0)
(-0.0352862 -0.0224953 0)
(-0.0320394 -0.0220579 0)
(-0.028846 -0.0214614 0)
(-0.025727 -0.0207078 0)
(-0.0227029 -0.0198007 0)
(-0.019794 -0.0187459 0)
(-0.01702 -0.0175513 0)
(-0.0143997 -0.0162272 0)
(-0.0119511 -0.0147865 0)
(-0.00969096 -0.0132454 0)
(-0.0076349 -0.0116232 0)
(-0.00579718 -0.00994308 0)
(-0.00419081 -0.00823228 0)
(-0.00282758 -0.00652266 0)
(-0.00171734 -0.00485105 0)
(-0.000867493 -0.00325954 0)
(-0.00029578 -0.00179565 0)
(-4.15553e-05 -0.000515244 0)
(-4.96457e-05 0.000744224 0)
(-0.000347373 0.00244528 0)
(-0.0010101 0.00429295 0)
(-0.00198602 0.00623188 0)
(-0.0032491 0.00821521 0)
(-0.00478621 0.0102017 0)
(-0.00658216 0.0121556 0)
(-0.00862029 0.0140463 0)
(-0.0108835 0.015848 0)
(-0.0133539 0.0175392 0)
(-0.016013 0.0191025 0)
(-0.0188416 0.0205237 0)
(-0.0218199 0.0217918 0)
(-0.0249276 0.0228985 0)
(-0.0281442 0.023838 0)
(-0.0314488 0.0246064 0)
(-0.0348203 0.0252019 0)
(-0.0382378 0.025624 0)
(-0.0416805 0.0258739 0)
(-0.0451278 0.0259537 0)
(-0.0485595 0.0258667 0)
(-0.0519558 0.025617 0)
(-0.0552975 0.0252096 0)
(-0.0585659 0.0246501 0)
(-0.0617432 0.0239445 0)
(-0.0648122 0.0230995 0)
(-0.0677565 0.0221221 0)
(-0.0705606 0.0210197 0)
(-0.0732098 0.0198 0)
(-0.0756906 0.0184709 0)
(-0.0779902 0.0170406 0)
(-0.0800969 0.0155176 0)
(-0.082 0.0139106 0)
(-0.0836898 0.0122282 0)
(-0.0851578 0.0104795 0)
(-0.0863964 0.00867358 0)
(-0.0873994 0.00681978 0)
(-0.0881615 0.00492752 0)
(-0.0886785 0.0030064 0)
(-0.0889476 0.00106615 0)
(-0.0889669 -0.000883372 0)
(-0.0887359 -0.00283217 0)
(-0.0882552 -0.00477012 0)
(-0.0875267 -0.00668704 0)
(-0.0865534 -0.00857261 0)
(-0.0853397 -0.0104165 0)
(-0.0838912 -0.0122082 0)
(-0.0822146 -0.0139375 0)
(-0.080318 -0.0155939 0)
(-0.0782107 -0.017167 0)
(-0.0759033 -0.0186468 0)
(-0.0734075 -0.0200232 0)
(-0.0707362 -0.0212864 0)
(-0.0679036 -0.0224269 0)