/*--------------------------------*- C++ -*----------------------------------*\
  =========                 |
  \\      /  F ield         | OpenFOAM: The Open Source CFD Toolbox
   \\    /   O peration     | Website:  https://openfoam.org
    \\  /    A nd           | Version:  7
     \\/     M anipulation  |
\*---------------------------------------------------------------------------*/
FoamFile
{
    version     2.0;
    format      ascii;
    class       volScalarField;
    location    "0.25";
    object      p;
}
// * * * * * * * * * * * * * * * * * * * * * * * * * * * * * * * * * * * * * //

dimensions      [0 2 -2 0 0 0 0];

internalField   nonuniform List<scalar> 
6400
(
6.83766e-07
1.31269e-05
-0.000494028
-0.00152713
-0.00296942
-0.00471079
-0.00665104
-0.0087007
-0.0107825
-0.012831
-0.0147912
-0.0166168
-0.0182696
-0.0197179
-0.0209357
-0.0219023
-0.0226017
-0.0230217
-0.0231538
-0.0229925
-0.0225355
-0.0217827
-0.0207366
-0.0194018
-0.0177848
-0.0158938
-0.0137386
-0.0113306
-0.00868223
-0.00580751
-0.00272141
0.000560019
0.00401979
0.00764004
0.0114021
0.0152866
0.0192736
0.0233424
0.027472
0.0316408
0.0358271
0.0400088
0.0441637
0.0482694
0.0523038
0.0562447
0.0600704
0.0637594
0.0672908
0.0706444
0.0738008
0.0767414
0.079449
0.0819074
0.084102
0.0860198
0.0876496
0.0889822
0.0900106
0.0907303
0.0911393
0.0912386
0.091032
0.0905271
0.0897349
0.0886703
0.0873527
0.0858062
0.0840603
0.0821501
0.0801174
0.0780113
0.0758893
0.0738184
0.0718761
0.0701508
0.0687397
0.0677467
0.0672785
0.0673157
-1.07214e-05
2.22955e-06
-0.000451663
-0.0013352
-0.0025491
-0.00401405
-0.00565423
-0.00739739
-0.00917837
-0.0109399
-0.0126322
-0.0142128
-0.0156458
-0.0169007
-0.0179527
-0.0187811
-0.0193699
-0.0197065
-0.0197819
-0.0195901
-0.0191277
-0.0183939
-0.0173901
-0.01612
-0.014589
-0.0128042
-0.0107743
-0.00850942
-0.00602101
-0.00332177
-0.000425507
0.00265292
0.00589776
0.00929241
0.0128195
0.0164609
0.0201978
0.0240112
0.0278811
0.0317874
0.0357098
0.0396275
0.0435197
0.0473657
0.0511446
0.0548359
0.0584192
0.0618746
0.0651828
0.0683249
0.0712831
0.0740405
0.076581
0.0788902
0.0809548
0.0827631
0.0843052
0.0855733
0.0865613
0.087266
0.0876862
0.0878236
0.0876829
0.0872719
0.0866018
0.0856877
0.0845486
0.0832078
0.0816935
0.0800387
0.0782825
0.0764697
0.0746519
0.0728873
0.0712414
0.0697856
0.068593
0.0677384
0.067315
0.0673532
0.000495383
0.000457175
3.22406e-06
-0.000812726
-0.0019034
-0.00320543
-0.00465757
-0.00619978
-0.00777654
-0.00933788
-0.0108395
-0.0122427
-0.013514
-0.0146252
-0.0155526
-0.0162765
-0.016781
-0.0170538
-0.0170857
-0.0168705
-0.0164043
-0.0156858
-0.0147158
-0.0134972
-0.0120347
-0.0103345
-0.00840451
-0.00625398
-0.00389344
-0.00133463
0.0014096
0.00432537
0.00739792
0.0106117
0.0139502
0.0173966
0.0209331
0.0245416
0.0282034
0.0318995
0.0356105
0.0393169
0.0429992
0.0466376
0.0502127
0.0537048
0.057095
0.0603646
0.0634952
0.0664695
0.0692706
0.0718828
0.0742913
0.0764827
0.0784446
0.0801666
0.0816397
0.0828568
0.083813
0.0845053
0.0849335
0.0850996
0.0850086
0.0846685
0.0840904
0.083289
0.0822825
0.0810933
0.0797478
0.078277
0.0767167
0.0751077
0.073496
0.0719324
0.0704729
0.0691767
0.0681031
0.0673125
0.0668901
0.0668873
0.0015281
0.00134285
0.000819065
-8.7363e-08
-0.00104797
-0.0022711
-0.00361767
-0.00503692
-0.00648126
-0.00790719
-0.00927556
-0.0105516
-0.011705
-0.0127096
-0.0135434
-0.0141878
-0.0146279
-0.0148518
-0.0148505
-0.0146177
-0.0141495
-0.0134444
-0.0125028
-0.011327
-0.0099212
-0.0082911
-0.0064439
-0.00438812
-0.00213359
0.000308701
0.00292671
0.00570741
0.00863685
0.0117003
0.0148823
0.0181666
0.0215366
0.024975
0.028464
0.0319857
0.0355215
0.039053
0.0425615
0.0460284
0.049435
0.0527629
0.055994
0.0591106
0.0620954
0.0649319
0.0676043
0.0700977
0.0723983
0.0744934
0.0763716
0.0780232
0.0794399
0.0806153
0.0815448
0.0822262
0.0826594
0.0828468
0.0827932
0.0825066
0.0819978
0.0812806
0.0803726
0.0792945
0.0780711
0.0767309
0.0753066
0.0738347
0.0723563
0.0709158
0.0695614
0.0683433
0.0673121
0.0665194
0.0660334
0.0658976
0.0029766
0.00256489
0.00191324
0.0010412
-1.40401e-05
-0.00120776
-0.00249609
-0.00383674
-0.0051894
-0.00651661
-0.00778421
-0.00896152
-0.0100214
-0.0109402
-0.0116977
-0.0122768
-0.0126638
-0.0128472
-0.0128188
-0.0125723
-0.0121039
-0.011412
-0.0104968
-0.00936042
-0.00800651
-0.00644029
-0.00466843
-0.00269886
-0.000540757
0.00179555
0.00429873
0.00695652
0.00975573
0.0126824
0.0157219
0.0188589
0.0220775
0.0253613
0.0286933
0.0320566
0.0354334
0.0388063
0.0421573
0.0454689
0.0487232
0.0519027
0.0549902
0.0579689
0.0608223
0.0635349
0.0660916
0.0684783
0.070682
0.0726908
0.074494
0.0760823
0.0774482
0.0785857
0.0794907
0.0801612
0.0805972
0.0808011
0.0807779
0.080535
0.0800826
0.0794339
0.0786051
0.0776155
0.0764879
0.0752483
0.0739259
0.0725534
0.0711669
0.0698049
0.0685085
0.0673201
0.0662829
0.0654405
0.0648343
0.0644864
0.00473855
0.00405017
0.00322763
0.0022624
0.00115836
-4.75161e-05
-0.00131803
-0.0026185
-0.00391538
-0.00517679
-0.00637327
-0.0074781
-0.00846736
-0.00932003
-0.0100179
-0.0105456
-0.0108904
-0.011042
-0.0109925
-0.0107362
-0.0102696
-0.00959096
-0.00870059
-0.00760031
-0.00629351
-0.00478507
-0.00308119
-0.00118931
0.000881954
0.00312286
0.00552269
0.00806985
0.0107519
0.0135555
0.0164669
0.0194714
0.0225538
0.0256987
0.0288898
0.0321108
0.0353451
0.0385758
0.041786
0.0449586
0.0480768
0.0511239
0.0540834
0.0569393
0.0596759
0.0622783
0.0647323
0.0670244
0.0691423
0.0710747
0.0728113
0.0743435
0.0756641
0.0767675
0.0776499
0.0783093
0.0787459
0.0789619
0.078962
0.0787532
0.0783449
0.0777495
0.0769817
0.0760594
0.0750031
0.0738362
0.0725849
0.0712779
0.0699467
0.0686243
0.0673456
0.0661458
0.0650618
0.0641304
0.0633612
0.0627502
0.00672329
0.00573
0.00470686
0.00361693
0.00243018
0.00117712
-0.000110459
-0.00140457
-0.00267771
-0.00390313
-0.00505578
-0.00611265
-0.00705299
-0.00785836
-0.0085127
-0.00900233
-0.00931576
-0.00944379
-0.00937932
-0.00911724
-0.00865433
-0.00798913
-0.00712188
-0.00605439
-0.0047899
-0.003333
-0.00168956
0.000133358
0.00212761
0.00428398
0.00659229
0.00904152
0.0116198
0.0143146
0.0171126
0.0199999
0.0229621
0.0259842
0.029051
0.0321467
0.0352554
0.0383609
0.0414472
0.0444978
0.0474967
0.0504278
0.0532753
0.0560238
0.0586585
0.061165
0.0635296
0.0657395
0.0677829
0.0696488
0.0713276
0.072811
0.0740919
0.0751651
0.0760269
0.0766753
0.0771104
0.0773342
0.0773508
0.0771668
0.0767909
0.0762341
0.07551
0.0746347
0.0736267
0.0725067
0.071298
0.0700257
0.0687169
0.0673999
0.0661037
0.0648574
0.063693
0.062641
0.0616789
0.0607756
0.0088517
0.00753998
0.00629713
0.00505938
0.00376392
0.00243599
0.00110304
-0.000212704
-0.00148903
-0.00270386
-0.0038362
-0.00486652
-0.00577705
-0.0065519
-0.0071771
-0.0076407
-0.00793266
-0.00804484
-0.00797105
-0.00770682
-0.00724942
-0.00659768
-0.005752
-0.00471421
-0.0034875
-0.00207628
-0.000486178
0.00127605
0.00320261
0.00528474
0.00751275
0.00987609
0.0123635
0.0149629
0.0176616
0.0204463
0.0233033
0.0262182
0.0291764
0.0321627
0.035162
0.0381586
0.0411372
0.0440819
0.0469774
0.049808
0.0525588
0.0552148
0.0577618
0.0601857
0.0624737
0.0646131
0.0665926
0.0684017
0.070031
0.0714724
0.0727192
0.073766
0.0746092
0.0752468
0.0756786
0.0759063
0.0759336
0.0757661
0.0754119
0.0748807
0.0741849
0.0733388
0.0723587
0.0712632
0.0700724
0.0688084
0.0674942
0.066154
0.0648116
0.0634908
0.0622196
0.0610236
0.0598489
0.0586389
0.0110568
0.0094227
0.007949
0.00654723
0.00512365
0.00369942
0.00229858
0.000938416
-0.000363473
-0.00158909
-0.00272114
-0.00374333
-0.00464067
-0.00539968
-0.00600847
-0.00645678
-0.00673601
-0.00683922
-0.00676113
-0.00649803
-0.00604769
-0.00540936
-0.0045837
-0.00357264
-0.00237937
-0.00100825
0.000535268
0.00224466
0.00411241
0.00613013
0.00828851
0.0105774
0.0129861
0.0155029
0.0181158
0.020812
0.0235781
0.0264006
0.0292652
0.0321574
0.0350627
0.0379659
0.0408522
0.0437064
0.0465136
0.0492588
0.0519273
0.0545049
0.0569776
0.059332
0.0615553
0.0636355
0.0655615
0.0673229
0.0689107
0.0703169
0.0715347
0.072559
0.0733858
0.0740131
0.0744403
0.0746687
0.0747014
0.0745433
0.0742014
0.0736845
0.0730034
0.0721709
0.0712013
0.0701107
0.0689169
0.0676388
0.066296
0.0649089
0.0634972
0.0620798
0.0606817
0.059325
0.057926
0.0564042
0.0132825
0.011328
0.00961806
0.0080414
0.00647552
0.00493859
0.00345212
0.00202915
0.000683302
-0.000571006
-0.00171972
-0.0027495
-0.00364798
-0.00440392
-0.0050074
-0.00544983
-0.00572404
-0.00582431
-0.00574631
-0.00548709
-0.00504506
-0.00441991
-0.0036126
-0.00262527
-0.00146121
-0.000124754
0.00137872
0.00304286
0.00486038
0.00682314
0.00892218
0.0111478
0.0134894
0.0159361
0.0184761
0.0210971
0.0237863
0.0265305
0.029316
0.0321289
0.034955
0.0377797
0.0405887
0.0433672
0.0461007
0.0487748
0.0513752
0.0538879
0.0562993
0.0585965
0.060767
0.0627989
0.0646812
0.066404
0.0679582
0.0693358
0.07053
0.0715357
0.0723486
0.0729665
0.0733883
0.0736148
0.0736486
0.0734937
0.0731562
0.0726437
0.0719656
0.0711331
0.0701588
0.0690566
0.0678419
0.0665308
0.0651402
0.063687
0.0621872
0.0606561
0.0591163
0.0575871
0.0559576
0.0541249
0.015482
0.0132125
0.0112647
0.00950632
0.00778809
0.00612615
0.0045402
0.00303975
0.00163498
0.000337225
-0.000842343
-0.00189303
-0.00280481
-0.00356861
-0.00417631
-0.00462096
-0.0048968
-0.00499927
-0.00492503
-0.00467195
-0.00423907
-0.00362658
-0.00283581
-0.00186915
-0.000730032
0.000577118
0.00204696
0.00367325
0.00544886
0.00736585
0.00941553
0.0115885
0.0138746
0.0162631
0.0187427
0.0213015
0.0239271
0.0266068
0.0293273
0.0320751
0.0348363
0.037597
0.040343
0.0430602
0.0457342
0.0483511
0.0508969
0.0533579
0.0557209
0.057973
0.060102
0.0620962
0.0639448
0.0656378
0.0671661
0.0685218
0.069698
0.0706891
0.0714909
0.0721007
0.0725169
0.0727398
0.0727712
0.0726145
0.0722746
0.071758
0.071073
0.0702291
0.0692372
0.0681093
0.0668587
0.065499
0.0640446
0.0625096
0.060907
0.0592488
0.0575563
0.0558471
0.0539844
0.0518453
0.0176162
0.0150385
0.0128536
0.0109097
0.00903232
0.00723629
0.00554024
0.00395073
0.00247502
0.00112178
-0.000100336
-0.00118299
-0.00211831
-0.00289912
-0.0035191
-0.00397283
-0.00425585
-0.00436479
-0.00429726
-0.00405196
-0.00362861
-0.00302793
-0.00225165
-0.00130246
-0.000183994
0.00109921
0.00254176
0.00413747
0.00587931
0.0077595
0.00976955
0.0119003
0.0141418
0.0164838
0.0189152
0.0214244
0.0239995
0.026628
0.0292971
0.0319935
0.0347039
0.0374145
0.0401117
0.0427814
0.0454097
0.047983
0.0504875
0.0529097
0.0552365
0.0574554
0.0595542
0.0615213
0.0633458
0.0650178
0.0665281
0.0678687
0.0690324
0.0700135
0.0708074
0.0714108
0.0718219
0.0720402
0.0720667
0.0719041
0.0715564
0.0710289
0.0703286
0.0694636
0.0684433
0.067278
0.0659789
0.0645577
0.0630265
0.061397
0.0596799
0.0578846
0.0560315
0.0541375
0.0520414
0.0496017
0.0196516
0.0167733
0.0143536
0.0122224
0.0101813
0.00824474
0.00643055
0.00474298
0.00318682
0.00176842
0.000494239
-0.000629439
-0.00159669
-0.00240213
-0.00304103
-0.00350944
-0.00380417
-0.00392294
-0.00386435
-0.00362789
-0.00321397
-0.00262385
-0.00185971
-0.000924601
0.000177619
0.00144226
0.00286386
0.00443618
0.00615229
0.00800449
0.00998443
0.0120831
0.014291
0.0165978
0.0189928
0.0214648
0.024002
0.0265923
0.0292232
0.0318818
0.0345549
0.0372291
0.039891
0.0425268
0.045123
0.0476659
0.050142
0.052538
0.054841
0.0570384
0.059118
0.0610683
0.0628785
0.0645383
0.0660386
0.067371
0.0685283
0.0695041
0.0702937
0.0708932
0.0713002
0.0715137
0.0715339
0.0713625
0.0710026
0.0704587
0.0697363
0.0688424
0.0677848
0.0665723
0.0652144
0.0637212
0.0621026
0.0603688
0.058528
0.0565878
0.0545686
0.0524867
0.0501585
0.0474247
0.0215595
0.0183882
0.0157368
0.0134177
0.0112103
0.00912863
0.00719041
0.0053979
0.00375385
0.00226263
0.000928797
-0.0002432
-0.00124917
-0.00208536
-0.00274854
-0.00323609
-0.00354601
-0.00367712
-0.00362894
-0.00340176
-0.00299665
-0.00241545
-0.00166081
-0.000736142
0.000354414
0.00160599
0.00301299
0.00456913
0.00626746
0.00810037
0.0100596
0.0121363
0.014321
0.0166037
0.018974
0.0214208
0.0239325
0.0264974
0.0291031
0.031737
0.0343861
0.0370373
0.0396774
0.0422927
0.0448699
0.0473955
0.049856
0.0522383
0.0545294
0.0567169
0.0587884
0.0607324
0.0625379
0.0641946
0.065693
0.0670245
0.0681815
0.0691575
0.0699468
0.0705454
0.0709502
0.0711594
0.0711726
0.0709906
0.0706156
0.0700509
0.0693011
0.0683719
0.0672699
0.0660024
0.0645774
0.0630035
0.0612892
0.0594429
0.0574714
0.0553807
0.0531914
0.0509199
0.0483614
0.0453398
0.023315
0.0198578
0.0169781
0.0144715
0.0120963
0.00986645
0.00779993
0.00589734
0.0041597
0.00258973
0.00119033
-3.57111e-05
-0.00108575
-0.0019575
-0.0026491
-0.00315915
-0.00348683
-0.00363193
-0.00359489
-0.00337678
-0.00297933
-0.00240498
-0.00165684
-0.0007387
0.000344977
0.00158911
0.00298796
0.00453514
0.00622366
0.00804593
0.00999375
0.0120583
0.0142304
0.0165
0.018857
0.0212903
0.0237888
0.0263407
0.028934
0.0315561
0.0341943
0.0368357
0.0394671
0.0420751
0.0446463
0.0471674
0.0496251
0.052006
0.0542974
0.0564864
0.058561
0.0605092
0.0623199
0.0639827
0.0654876
0.0668257
0.0679891
0.0689708
0.0697647
0.070366
0.0707711
0.0709774
0.0709839
0.0707905
0.0703984
0.06981
0.0690289
0.0680596
0.0669075
0.0655787
0.0640801
0.0624187
0.0606019
0.0586369
0.0565292
0.0542836
0.0519212
0.0494592
0.0466724
0.0433686
0.024896
0.0211593
0.0180547
0.0153615
0.0128178
0.0104379
0.00824009
0.00622367
0.0043882
0.00273499
0.00126549
-1.89436e-05
-0.0011171
-0.002028
-0.00275102
-0.00328595
-0.00363301
-0.00379296
-0.00376708
-0.0035572
-0.00316575
-0.00259572
-0.0018507
-0.000934885
0.000146942
0.00138945
0.00278671
0.00433222
0.00601893
0.0078392
0.00978485
0.0118472
0.0140169
0.0162843
0.0186392
0.0210708
0.0235681
0.0261193
0.0287127
0.0313358
0.0339761
0.0366206
0.0392563
0.04187
0.0444483
0.0469778
0.0494451
0.051837
0.0541406
0.0563429
0.0584316
0.0603947
0.0622208
0.0638989
0.0654191
0.0667718
0.0679487
0.0689423
0.069746
0.0703543
0.070763
0.0709688
0.0709698
0.0707652
0.0703552
0.0697414
0.0689262
0.0679132
0.0667068
0.065312
0.0637345
0.0619804
0.0600559
0.0579672
0.0557189
0.053315
0.0507775
0.0481244
0.0451112
0.0415298
0.0262826
0.022272
0.0189455
0.016067
0.0133547
0.0108236
0.00849254
0.00635969
0.00442336
0.00268364
0.00114073
-0.000205288
-0.00135446
-0.00230701
-0.00306346
-0.00362469
-0.0039919
-0.00416676
-0.00415136
-0.0039483
-0.00356063
-0.00299193
-0.00224627
-0.00132824
-0.000242975
0.00100392
0.00240632
0.00395759
0.00565054
0.00747748
0.00943021
0.0115
0.0136778
0.0159537
0.0183177
0.0207592
0.0232671
0.0258299
0.0284358
0.0310726
0.0337277
0.0363883
0.0390413
0.0416736
0.0442718
0.0468224
0.049312
0.0517273
0.0540551
0.0562825
0.0583967
0.0603856
0.0622373
0.0639406
0.065485
0.0668607
0.0680588
0.069071
0.0698904
0.0705108
0.0709271
0.0711355
0.0711332
0.0709184
0.0704908
0.0698509
0.0690002
0.0679413
0.0666776
0.0652132
0.063553
0.061702
0.0596656
0.0574494
0.0550572
0.0524924
0.0497782
0.0469335
0.0436951
0.0398397
0.0274567
0.0231768
0.0196312
0.0165686
0.013688
0.0110051
0.00853955
0.00628852
0.00424927
0.00242081
0.00080223
-0.000607513
-0.00180958
-0.00280531
-0.00359628
-0.00418434
-0.00457166
-0.00476075
-0.0047545
-0.00455622
-0.00416959
-0.00359876
-0.00284828
-0.00192317
-0.00082889
0.000428656
0.00184312
0.00340768
0.00511504
0.0069574
0.00892651
0.0110137
0.0132097
0.0155049
0.0178892
0.020352
0.0228824
0.0254689
0.0280997
0.0307627
0.0334453
0.0361348
0.0388181
0.0414819
0.0441128
0.0466974
0.049222
0.0516731
0.0540374
0.0563017
0.058453
0.0604787
0.0623666
0.0641052
0.0656835
0.067091
0.0683183
0.0693566
0.0701983
0.0708364
0.0712653
0.0714802
0.0714776
0.071255
0.0708109
0.0701452
0.0692586
0.0681526
0.0668298
0.0652936
0.0635478
0.0615969
0.0594456
0.0570989
0.05456
0.0518321
0.0489397
0.045903
0.0424401
0.038313
0.0284014
0.0238557
0.0200934
0.0168478
0.0137995
0.0109646
0.00836385
0.00599358
0.00385011
0.00193152
0.000235915
-0.00123876
-0.00249469
-0.00353424
-0.00435994
-0.00497459
-0.00538121
-0.00558315
-0.00558407
-0.00538795
-0.0049991
-0.0044222
-0.00366233
-0.00272489
-0.00161571
-0.000340982
0.00109268
0.00267826
0.00440831
0.00627493
0.00826977
0.0103841
0.0126087
0.0149339
0.0173496
0.0198452
0.0224099
0.0250321
0.0277002
0.0304019
0.0331248
0.035856
0.0385824
0.0412908
0.0439674
0.0465988
0.0491711
0.0516707
0.0540839
0.0563973
0.0585974
0.0606714
0.0626067
0.064391
0.066013
0.0674618
0.068727
0.0697995
0.0706707
0.0713331
0.0717801
0.0720064
0.0720074
0.07178
0.0713218
0.0706318
0.0697097
0.0685565
0.0671739
0.0655645
0.0637314
0.0616784
0.0594099
0.0569304
0.0542427
0.0513498
0.0482777
0.0450481
0.0413608
0.0369629
0.0291005
0.0242919
0.0203145
0.016887
0.0136713
0.0106847
0.00794845
0.00545843
0.00321009
0.00120071
-0.000572501
-0.00211253
-0.0034225
-0.00450569
-0.00536557
-0.00600578
-0.0064302
-0.00664295
-0.00664842
-0.00645127
-0.00605641
-0.00546906
-0.00469477
-0.0037394
-0.00260909
-0.00131039
0.000149852
0.00176438
0.00352559
0.00542543
0.00745547
0.00960689
0.0118704
0.0142364
0.0166946
0.0192346
0.0218453
0.0245154
0.0272331
0.0299861
0.032762
0.0355477
0.0383303
0.0410961
0.0438315
0.0465226
0.0491556
0.0517165
0.0541913
0.0565661
0.0588273
0.0609614
0.0629553
0.0647965
0.0664728
0.0679726
0.0692852
0.0704005
0.0713092
0.0720031
0.0724749
0.0727181
0.0727277
0.0724995
0.0720304
0.0713184
0.0703626
0.0691631
0.0677208
0.0660377
0.0641164
0.0619601
0.0595727
0.0569585
0.0541202
0.0510606
0.0478073
0.0443835
0.040471
0.0358021
0.0295386
0.0244688
0.0202776
0.0166689
0.0132863
0.0101481
0.00727651
0.00466668
0.00231339
0.000213167
-0.00163757
-0.00324268
-0.00460613
-0.00573207
-0.00662484
-0.0072889
-0.00772894
-0.00794983
-0.00795664
-0.0077547
-0.00734952
-0.00674684
-0.0059527
-0.00497338
-0.00381541
-0.00248562
-0.000991173
0.000660459
0.00246147
0.00440367
0.00647851
0.00867704
0.0109899
0.0134074
0.0159194
0.0185153
0.0211839
0.023914
0.0266936
0.0295105
0.0323521
0.0352054
0.0380571
0.0408935
0.0437008
0.046465
0.0491719
0.051807
0.0543563
0.0568053
0.05914
0.0613464
0.063411
0.0653205
0.0670621
0.0686236
0.0699935
0.071161
0.0721161
0.0728496
0.0733533
0.0736202
0.0736442
0.0734201
0.0729442
0.0722136
0.0712266
0.0699825
0.0684817
0.0667254
0.0647156
0.0624553
0.0599481
0.0571979
0.0542073
0.0509793
0.0475431
0.0439236
0.0397843
0.0348427
0.0297003
0.0243702
0.019966
0.0161766
0.0126276
0.00933804
0.00633129
0.00360193
0.00114402
-0.00104657
-0.00297417
-0.00464343
-0.00605915
-0.00722629
-0.00815
-0.00883554
-0.00928838
-0.00951411
-0.00951849
-0.00930745
-0.00888712
-0.00826377
-0.0074439
-0.00643422
-0.00524166
-0.00387338
-0.00233681
-0.000639686
0.00120999
0.00320386
0.00533323
0.00758904
0.00996186
0.0124419
0.0150188
0.0176821
0.0204206
0.0232229
0.0260769
0.0289704
0.0318906
0.0348244
0.0377584
0.0406787
0.0435713
0.0464219
0.0492159
0.0519388
0.0545757
0.057112
0.0595332
0.0618247
0.0639723
0.0659621
0.0677807
0.0694152
0.0708532
0.072083
0.073094
0.073876
0.07442
0.074718
0.074763
0.0745491
0.0740715
0.0733266
0.0723118
0.0710259
0.0694684
0.0676401
0.0655426
0.0631782
0.0605504
0.0576631
0.0545189
0.0511208
0.0474998
0.0436824
0.0393139
0.0340968
0.0295705
0.0239802
0.019363
0.0153932
0.0116779
0.00823744
0.00509596
0.00224762
-0.000314176
-0.00259421
-0.0045975
-0.00632945
-0.00779562
-0.00900178
-0.00995387
-0.0106579
-0.0111201
-0.0113468
-0.0113444
-0.0111194
-0.0106786
-0.0100287
-0.00917679
-0.00812996
-0.00689552
-0.00548098
-0.00389409
-0.0021428
-0.000235356
0.0018197
0.00401351
0.00633691
0.00878035
0.0113339
0.0139873
0.0167297
0.01955
0.0224367
0.0253776
0.0283604
0.0313722
0.0343998
0.0374294
0.0404471
0.0434386
0.0463892
0.049284
0.0521082
0.0548464
0.0574836
0.0600046
0.0623943
0.0646379
0.0667208
0.0686288
0.0703481
0.0718657
0.0731689
0.0742462
0.0750865
0.0756799
0.0760174
0.0760911
0.0758941
0.0754209
0.074667
0.0736289
0.0723048
0.0706934
0.0687951
0.0666108
0.0641429
0.0613945
0.0583694
0.0550702
0.0515002
0.047692
0.0436742
0.0390732
0.0335765
0.0291339
0.0232826
0.0184521
0.0143017
0.0104203
0.00682919
0.00355351
0.000586953
-0.00207771
-0.00444586
-0.00652318
-0.00831581
-0.00983007
-0.0110725
-0.0120498
-0.0127688
-0.0132363
-0.0134595
-0.0134453
-0.013201
-0.0127338
-0.0120511
-0.0111604
-0.0100692
-0.00878519
-0.0073163
-0.00567053
-0.00385614
-0.00188157
0.000244407
0.00251279
0.00491425
0.00743915
0.0100774
0.0128187
0.0156521
0.0185663
0.0215498
0.0245903
0.0276753
0.0307919
0.0339265
0.0370653
0.040194
0.0432981
0.0463626
0.0493723
0.0523117
0.0551654
0.0579174
0.0605521
0.0630538
0.065407
0.0675963
0.0696066
0.0714235
0.073033
0.0744214
0.0755763
0.0764856
0.0771385
0.0775249
0.0776359
0.0774639
0.0770021
0.0762452
0.0751892
0.0738312
0.0721696
0.0702039
0.0679349
0.0653644
0.0624955
0.0593321
0.0558767
0.0521328
0.048135
0.0439136
0.0390762
0.0332945
0.0283746
0.0222611
0.0172163
0.0128849
0.00883744
0.00509588
0.00168661
-0.00139721
-0.00416342
-0.00661798
-0.00876727
-0.0106181
-0.0121776
-0.013453
-0.0144518
-0.0151815
-0.0156498
-0.0158643
-0.0158329
-0.0155633
-0.0150634
-0.014341
-0.0134042
-0.012261
-0.0109194
-0.00938767
-0.00767418
-0.00578743
-0.00373612
-0.00152922
0.000824075
0.00331429
0.00593164
0.00866598
0.0115068
0.0144431
0.0174635
0.0205563
0.0237092
0.0269095
0.030144
0.0333992
0.0366608
0.0399145
0.0431454
0.046338
0.0494768
0.052546
0.0555293
0.0584107
0.0611736
0.0638016
0.0662786
0.0685882
0.0707148
0.0726428
0.0743572
0.0758437
0.0770884
0.0780784
0.0788018
0.0792475
0.0794056
0.0792673
0.078825
0.0780724
0.0770047
0.0756182
0.0739107
0.0718811
0.0695297
0.0668582
0.0638695
0.0605674
0.0569545
0.0530348
0.0488445
0.0444159
0.0393371
0.033264
0.0272768
0.0208988
0.0156385
0.0111254
0.0069115
0.00301974
-0.000522456
-0.00372242
-0.00658859
-0.00912755
-0.0113463
-0.0132524
-0.0148537
-0.0161583
-0.0171742
-0.0179099
-0.0183737
-0.018574
-0.0185193
-0.0182179
-0.0176783
-0.016909
-0.0159184
-0.014715
-0.0133073
-0.0117039
-0.00991346
-0.00794479
-0.00580684
-0.00350877
-0.00105998
0.00152989
0.00425091
0.0070928
0.0100449
0.0130962
0.0162353
0.01945
0.0227282
0.026057
0.029423
0.0328124
0.0362109
0.0396037
0.0429755
0.0463108
0.0495935
0.0528072
0.0559353
0.0589608
0.0618669
0.0646362
0.0672519
0.0696967
0.0719541
0.0740075
0.075841
0.077439
0.0787868
0.0798703
0.0806764
0.0811928
0.0814087
0.081314
0.0809003
0.0801603
0.0790881
0.0776794
0.0759311
0.0738418
0.0714112
0.0686407
0.0655331
0.0620922
0.0583208
0.0542229
0.049837
0.0451971
0.0398713
0.033499
0.0258237
0.0191784
0.0137008
0.00900508
0.00462433
0.000582506
-0.0030919
-0.00640674
-0.00937107
-0.0119921
-0.0142775
-0.0162355
-0.0178747
-0.019204
-0.0202322
-0.0209686
-0.0214221
-0.0216019
-0.0215172
-0.0211769
-0.0205902
-0.0197661
-0.0187135
-0.0174413
-0.0159586
-0.0142742
-0.0123972
-0.0103367
-0.00810188
-0.00570213
-0.00314703
-0.000446379
0.00238973
0.00535089
0.00842633
0.0116049
0.014875
0.0182246
0.0216413
0.0251119
0.028623
0.0321605
0.03571
0.0392563
0.0427838
0.0462766
0.0497182
0.0530917
0.0563799
0.0595652
0.0626299
0.0655563
0.0683262
0.0709218
0.0733254
0.0755195
0.077487
0.0792113
0.0806765
0.0818672
0.0827691
0.0833689
0.0836544
0.0836145
0.0832396
0.0825213
0.0814529
0.0800292
0.0782462
0.0761021
0.073596
0.0707291
0.0675039
0.0639244
0.0599934
0.055715
0.05113
0.0462742
0.0406949
0.0340149
0.0239982
0.0170822
0.0113849
0.00650528
0.00195709
-0.00223471
-0.00604058
-0.00946888
-0.0125293
-0.0152297
-0.0175784
-0.0195845
-0.0212572
-0.0226063
-0.0236414
-0.0243724
-0.0248093
-0.0249618
-0.0248397
-0.024453
-0.0238111
-0.0229237
-0.0218003
-0.0204503
-0.0188832
-0.0171081
-0.0151346
-0.0129719
-0.0106297
-0.00811742
-0.00544492
-0.00262214
0.000340678
0.003433
0.00664392
0.0099622
0.0133761
0.0168735
0.0204418
0.0240678
0.0277379
0.0314377
0.0351526
0.038867
0.0425653
0.0462308
0.0498467
0.0533957
0.0568598
0.060221
0.0634607
0.0665603
0.0695009
0.0722637
0.0748298
0.0771808
0.0792983
0.0811646
0.0827625
0.0840753
0.0850875
0.0857844
0.0861526
0.0861797
0.0858549
0.0851688
0.0841135
0.0826829
0.0808723
0.0786791
0.076102
0.0731418
0.0698008
0.0660831
0.0619913
0.0575302
0.0527422
0.0476653
0.0418255
0.0348279
0.0217821
0.0145913
0.00867174
0.00360661
-0.00110977
-0.00545152
-0.00938805
-0.0129282
-0.0160825
-0.0188593
-0.0212676
-0.0233174
-0.0250187
-0.0263821
-0.027418
-0.0281371
-0.0285502
-0.0286679
-0.0285007
-0.028059
-0.0273533
-0.0263937
-0.0251902
-0.0237528
-0.0220913
-0.0202154
-0.0181349
-0.0158595
-0.0133989
-0.010763
-0.00796168
-0.00500516
-0.00190378
0.00133179
0.00469055
0.00816114
0.0117317
0.0153901
0.0191235
0.0229186
0.0267616
0.0306381
0.0345329
0.0384306
0.0423147
0.0461685
0.0499747
0.0537153
0.0573718
0.0609255
0.0643571
0.067647
0.0707754
0.0737225
0.0764685
0.0789935
0.0812781
0.0833033
0.0850503
0.0865014
0.0876395
0.0884486
0.0889137
0.0890213
0.0887592
0.0881168
0.0870851
0.0856569
0.0838267
0.081591
0.0789481
0.0758983
0.0724438
0.0685884
0.0643351
0.0596886
0.0546936
0.0493902
0.0432819
0.0359558
0.0191565
0.0116862
0.00554127
0.000288834
-0.00459667
-0.00908842
-0.0131547
-0.0168051
-0.0200506
-0.0229004
-0.0253643
-0.027453
-0.0291774
-0.0305488
-0.0315788
-0.0322788
-0.0326605
-0.0327351
-0.0325141
-0.0320086
-0.0312297
-0.0301882
-0.0288947
-0.0273596
-0.0255934
-0.023606
-0.0214077
-0.0190084
-0.0164182
-0.0136472
-0.0107054
-0.00760328
-0.00435125
-0.000960122
0.00255901
0.00619469
0.00993502
0.0137677
0.0176798
0.0216579
0.0256881
0.0297557
0.0338454
0.0379414
0.042027
0.0460851
0.0500978
0.0540466
0.0579125
0.061676
0.0653169
0.0688149
0.0721491
0.0752987
0.0782427
0.08096
0.0834299
0.0856318
0.0875458
0.0891526
0.0904335
0.091371
0.0919488
0.0921518
0.0919664
0.0913805
0.090384
0.0889686
0.0871278
0.0848572
0.0821545
0.0790196
0.0754542
0.0714622
0.0670465
0.0622121
0.0570059
0.0514699
0.0450845
0.0374181
0.0161015
0.00834639
0.00197256
-0.00346927
-0.00852497
-0.0131668
-0.017362
-0.0211206
-0.0244545
-0.0273735
-0.0298884
-0.0320106
-0.0337519
-0.0351248
-0.0361414
-0.0368143
-0.037156
-0.0371787
-0.0368945
-0.0363155
-0.0354534
-0.0343197
-0.0329256
-0.0312821
-0.0294001
-0.0272901
-0.0249626
-0.022428
-0.0196965
-0.0167785
-0.0136843
-0.0104243
-0.00700931
-0.00345009
0.000242143
0.00405587
0.00797913
0.0119995
0.0161041
0.0202793
0.024511
0.0287845
0.0330842
0.037394
0.041697
0.0459756
0.0502115
0.0543857
0.0584784
0.0624695
0.066338
0.0700626
0.0736214
0.0769926
0.0801537
0.0830826
0.0857571
0.0881551
0.0902551
0.0920363
0.0934783
0.0945621
0.0952697
0.0955843
0.0954908
0.0949758
0.0940276
0.0926366
0.0907954
0.0884985
0.085743
0.082528
0.078855
0.0747278
0.0701492
0.0651243
0.0597023
0.0539274
0.0472557
0.039236
0.0125961
0.00455032
-0.00205641
-0.00769001
-0.0129172
-0.0177091
-0.0220321
-0.0258968
-0.0293159
-0.0323001
-0.0348608
-0.0370105
-0.0387621
-0.0401287
-0.0411239
-0.041761
-0.0420534
-0.0420143
-0.0416569
-0.0409939
-0.0400378
-0.0388008
-0.0372948
-0.0355315
-0.0335221
-0.0312777
-0.0288091
-0.0261271
-0.0232423
-0.0201651
-0.0169061
-0.0134759
-0.00988536
-0.00614532
-0.00226705
0.00173785
0.0058574
0.0100791
0.01439
0.0187765
0.0232243
0.0277186
0.0322436
0.0367829
0.0413195
0.0458352
0.0503114
0.0547284
0.059066
0.0633032
0.0674181
0.0713886
0.0751918
0.0788045
0.0822031
0.085364
0.0882636
0.0908782
0.0931847
0.0951604
0.0967834
0.0980328
0.0988888
0.0993329
0.0993482
0.0989197
0.0980343
0.0966808
0.0948506
0.0925372
0.0897367
0.0864476
0.082671
0.0784104
0.0736685
0.0684506
0.0628082
0.0567875
0.0498195
0.0414327
0.00861825
0.000275176
-0.00656888
-0.0123969
-0.0177969
-0.0227391
-0.0271887
-0.0311572
-0.0346579
-0.0377025
-0.0403034
-0.0424739
-0.0442282
-0.0455804
-0.0465451
-0.0471367
-0.0473696
-0.0472582
-0.0468165
-0.0460581
-0.0449963
-0.0436442
-0.0420143
-0.0401189
-0.0379699
-0.0355787
-0.0329566
-0.0301148
-0.027064
-0.0238151
-0.0203787
-0.0167655
-0.0129865
-0.00905271
-0.00497531
-0.000765939
0.00356338
0.00800018
0.0125314
0.0171435
0.0218221
0.0265522
0.031318
0.0361028
0.0408893
0.0456591
0.050393
0.0550709
0.0596718
0.0641741
0.0685551
0.0727916
0.0768597
0.0807349
0.0843923
0.0878069
0.0909533
0.0938064
0.0963412
0.0985332
0.100359
0.101795
0.102819
0.103412
0.103555
0.10323
0.102424
0.101122
0.0993159
0.096997
0.0941606
0.0908043
0.0869287
0.0825372
0.077632
0.0722186
0.0663509
0.0600774
0.0528025
0.0440335
0.00414453
-0.00450312
-0.0115894
-0.0176147
-0.023189
-0.0282817
-0.0328566
-0.0369261
-0.0405045
-0.0436043
-0.046239
-0.048423
-0.0501716
-0.0515001
-0.0524243
-0.0529599
-0.0531222
-0.0529269
-0.0523888
-0.0515226
-0.0503426
-0.0488627
-0.047096
-0.0450556
-0.0427538
-0.0402028
-0.0374143
-0.0343996
-0.0311699
-0.0277361
-0.0241093
-0.0203001
-0.0163196
-0.0121788
-0.00788896
-0.00346169
0.00109102
0.00575673
0.0105224
0.0153745
0.0202987
0.0252798
0.030302
0.0353484
0.0404015
0.0454425
0.0504519
0.055409
0.0602924
0.0650794
0.0697467
0.0742701
0.0786244
0.0827841
0.0867228
0.0904138
0.0938303
0.0969452
0.0997317
0.102163
0.104214
0.105859
0.107075
0.107838
0.108129
0.107927
0.107217
0.105984
0.104216
0.101904
0.0990415
0.095626
0.091657
0.0871375
0.0820695
0.0764583
0.0703605
0.0638266
0.0562334
0.0470662
-0.000849782
-0.00981006
-0.017144
-0.0233698
-0.0291202
-0.0343633
-0.0390621
-0.0432296
-0.0468812
-0.0500303
-0.0526917
-0.0548809
-0.0566145
-0.0579092
-0.0587819
-0.0592496
-0.0593291
-0.059037
-0.0583894
-0.0574021
-0.0560903
-0.0544687
-0.0525515
-0.0503523
-0.0478841
-0.0451595
-0.0421907
-0.0389895
-0.0355673
-0.0319353
-0.0281046
-0.024086
-0.0198906
-0.0155295
-0.0110138
-0.00635506
-0.00156524
0.0033433
0.00835764
0.0134642
0.0186487
0.0238961
0.0291904
0.0345148
0.0398512
0.0451809
0.0504838
0.055739
0.0609242
0.0660162
0.0709907
0.0758226
0.0804856
0.0849527
0.0891962
0.0931877
0.0968988
0.1003
0.103364
0.10606
0.108361
0.11024
0.11167
0.112627
0.113088
0.11303
0.112437
0.111289
0.109576
0.107285
0.104408
0.100943
0.096887
0.0922432
0.0870132
0.0812022
0.0748692
0.0680671
0.0601437
0.0505612
-0.00639093
-0.0156727
-0.0232603
-0.0296903
-0.0356185
-0.0410121
-0.045833
-0.050095
-0.0538147
-0.0570066
-0.0596867