/*--------------------------------*- C++ -*----------------------------------*\
  =========                 |
  \\      /  F ield         | OpenFOAM: The Open Source CFD Toolbox
   \\    /   O peration     | Website:  https://openfoam.org
    \\  /    A nd           | Version:  7
     \\/     M anipulation  |
\*---------------------------------------------------------------------------*/
FoamFile
{
    version     2.0;
    format      ascii;
    class       surfaceScalarField;
    location    "0.25";
    object      phi;
}
// * * * * * * * * * * * * * * * * * * * * * * * * * * * * * * * * * * * * * //

dimensions      [0 3 -1 0 0 0 0];

internalField   nonuniform List<scalar> 
12640
(
1.90324e-10
-1.90698e-10
5.56096e-10
-3.65746e-10
8.82966e-10
-3.26892e-10
1.04558e-09
-1.62675e-10
9.81873e-10
6.37268e-11
6.64737e-10
3.17191e-10
8.72868e-11
5.7749e-10
-7.45395e-10
8.32673e-10
-1.8211e-09
1.07567e-09
-3.12335e-09
1.30223e-09
-4.63314e-09
1.5098e-09
-6.33001e-09
1.69689e-09
-8.19275e-09
1.86274e-09
-1.01998e-08
2.00707e-09
-1.23298e-08
2.12991e-09
-1.45612e-08
2.23148e-09
-1.68734e-08
2.31218e-09
-1.92459e-08
2.37254e-09
-2.16591e-08
2.41318e-09
-2.40939e-08
2.43479e-09
-2.6532e-08
2.4381e-09
-2.89558e-08
2.42385e-09
-3.13486e-08
2.39283e-09
-3.36944e-08
2.34583e-09
-3.59782e-08
2.2837e-09
-3.81854e-08
2.20725e-09
-4.03027e-08
2.11731e-09
-4.23175e-08
2.01472e-09
-4.42178e-08
1.90031e-09
-4.59927e-08
1.77493e-09
-4.76321e-08
1.63943e-09
-4.91268e-08
1.49466e-09
-5.04683e-08
1.34149e-09
-5.1649e-08
1.18078e-09
-5.26624e-08
1.01341e-09
-5.35027e-08
8.40261e-10
-5.41649e-08
6.62243e-10
-5.46452e-08
4.80269e-10
-5.49405e-08
2.95273e-10
-5.50487e-08
1.08198e-10
-5.49687e-08
-7.99919e-11
-5.47004e-08
-2.68312e-10
-5.42446e-08
-4.55765e-10
-5.36033e-08
-6.41335e-10
-5.27793e-08
-8.23981e-10
-5.17766e-08
-1.00265e-09
-5.06004e-08
-1.17628e-09
-4.92566e-08
-1.3438e-09
-4.77525e-08
-1.50411e-09
-4.60963e-08
-1.65612e-09
-4.42976e-08
-1.79875e-09
-4.23667e-08
-1.93089e-09
-4.03152e-08
-2.05147e-09
-3.81558e-08
-2.15943e-09
-3.59021e-08
-2.2537e-09
-3.35688e-08
-2.33328e-09
-3.11716e-08
-2.39717e-09
-2.87272e-08
-2.44442e-09
-2.62531e-08
-2.47415e-09
-2.37676e-08
-2.4855e-09
-2.12899e-08
-2.47772e-09
-1.88398e-08
-2.4501e-09
-1.64377e-08
-2.40205e-09
-1.41047e-08
-2.33307e-09
-1.18619e-08
-2.24276e-09
-9.73102e-09
-2.1309e-09
-7.73359e-09
-1.99742e-09
-5.89111e-09
-1.84248e-09
-4.22462e-09
-1.66649e-09
-2.75442e-09
-1.4702e-09
-1.49952e-09
-1.2549e-09
-4.76948e-10
-1.02256e-09
2.99302e-10
-7.76248e-10
8.2001e-10
-5.20713e-10
1.08354e-09
-2.63535e-10
1.10064e-09
-1.70807e-11
9.02352e-10
1.98298e-10
5.54412e-10
3.47909e-10
1.83965e-10
3.70349e-10
1.83864e-10
3.65932e-10
-5.56655e-10
8.86412e-10
-8.86208e-10
1.21683e-09
-6.57223e-10
1.13427e-09
-8.01166e-11
5.01193e-10
6.96727e-10
-7.56141e-10
1.57447e-09
-2.66685e-09
2.48822e-09
-5.22988e-09
3.39575e-09
-8.4238e-09
4.26962e-09
-1.22136e-08
5.09199e-09
-1.65551e-08
5.85131e-09
-2.13984e-08
6.54023e-09
-2.66899e-08
7.15428e-09
-3.23739e-08
7.69105e-09
-3.83936e-08
8.1496e-09
-4.46922e-08
8.53005e-09
-5.12133e-08
8.83325e-09
-5.79015e-08
9.06064e-09
-6.47024e-08
9.21411e-09
-7.15635e-08
9.29588e-09
-7.84338e-08
9.30841e-09
-8.52644e-08
9.25439e-09
-9.20081e-08
9.13659e-09
-9.86202e-08
8.95793e-09
-1.05058e-07
8.72141e-09
-1.11281e-07
8.4301e-09
-1.17251e-07
8.08711e-09
-1.22931e-07
7.6956e-09
-1.2829e-07
7.25876e-09
-1.33295e-07
6.77981e-09
-1.37917e-07
6.26199e-09
-1.42131e-07
5.70858e-09
-1.45913e-07
5.12291e-09
-1.4924e-07
4.50832e-09
-1.52095e-07
3.86821e-09
-1.54461e-07
3.20599e-09
-1.56324e-07
2.52517e-09
-1.57673e-07
1.82927e-09
-1.58499e-07
1.1219e-09
-1.58798e-07
4.06711e-10
-1.58565e-07
-3.12569e-10
-1.57801e-07
-1.03216e-09
-1.56509e-07
-1.7482e-09
-1.54693e-07
-2.45678e-09
-1.52363e-07
-3.15393e-09
-1.4953e-07
-3.83563e-09
-1.46209e-07
-4.4978e-09
-1.42416e-07
-5.13632e-09
-1.38173e-07
-5.74707e-09
-1.33504e-07
-6.3259e-09
-1.28434e-07
-6.86866e-09
-1.22993e-07
-7.37124e-09
-1.17215e-07
-7.82955e-09
-1.11135e-07
-8.2396e-09
-1.04791e-07
-8.59745e-09
-9.82253e-08
-8.89929e-09
-9.1481e-08
-9.14148e-09
-8.46049e-08
-9.32053e-09
-7.76459e-08
-9.43317e-09
-7.0655e-08
-9.47638e-09
-6.36853e-08
-9.44741e-09
-5.67915e-08
-9.34388e-09
-5.00298e-08
-9.16376e-09
-4.34574e-08
-8.90551e-09
-3.7132e-08
-8.56808e-09
-3.11118e-08
-8.15108e-09
-2.54544e-08
-7.65484e-09
-2.02162e-08
-7.08069e-09
-1.54516e-08
-6.4311e-09
-1.12117e-08
-5.71012e-09
-7.54266e-09
-4.92391e-09
-4.4837e-09
-4.08152e-09
-2.0637e-09
-3.19625e-09
-2.96882e-10
-2.28753e-09
8.23691e-10
-1.38413e-09
1.33564e-09
-5.2905e-10
1.32099e-09
2.13006e-10
9.24011e-10
7.45057e-10
3.70557e-10
9.24019e-10
5.54359e-10
3.30126e-10
-8.86801e-10
6.6578e-10
-1.22187e-09
6.12301e-10
-6.0368e-10
-9.11864e-11
6.23445e-10
-1.61543e-09
2.221e-09
-4.05961e-09
4.0186e-09
-7.46804e-09
5.8966e-09
-1.18447e-08
7.77235e-09
-1.71641e-08
9.58907e-09
-2.33799e-08
1.13078e-08
-3.04309e-08
1.29023e-08
-3.82455e-08
1.43548e-08
-4.67451e-08
1.56539e-08
-5.58468e-08
1.67928e-08
-6.54654e-08
1.77682e-08
-7.55141e-08
1.85788e-08
-8.59066e-08
1.92258e-08
-9.65572e-08
1.97112e-08
-1.07382e-07
2.00386e-08
-1.18298e-07
2.02121e-08
-1.29226e-07
2.02366e-08
-1.40089e-07
2.01174e-08
-1.50813e-07
1.98605e-08
-1.61327e-07
1.94717e-08
-1.71563e-07
1.89574e-08
-1.81457e-07
1.83241e-08
-1.90948e-07
1.75785e-08
-1.9998e-07
1.67274e-08
-2.08499e-07
1.57775e-08
-2.16455e-07
1.4736e-08
-2.23803e-07
1.36098e-08
-2.305e-07
1.24061e-08
-2.36509e-07
1.11321e-08
-2.41796e-07
9.79512e-09
-2.46331e-07
8.40261e-09
-2.50087e-07
6.96207e-09
-2.53043e-07
5.48113e-09
-2.55181e-07
3.96753e-09
-2.56488e-07
2.42915e-09
-2.56955e-07
8.73978e-10
-2.56578e-07
-6.89833e-10
-2.55356e-07
-2.25402e-09
-2.53294e-07
-3.81017e-09
-2.50401e-07
-5.34976e-09
-2.46691e-07
-6.86414e-09
-2.42182e-07
-8.34456e-09
-2.36898e-07
-9.78217e-09
-2.30866e-07
-1.11681e-08
-2.2412e-07
-1.24933e-08
-2.16697e-07
-1.37488e-08
-2.0864e-07
-1.49259e-08
-1.99996e-07
-1.60154e-08
-1.90816e-07
-1.70088e-08
-1.81158e-07
-1.78974e-08
-1.71083e-07
-1.86728e-08
-1.60655e-07
-1.9327e-08
-1.49945e-07
-1.98521e-08
-1.39025e-07
-2.02408e-08
-1.27971e-07
-2.04863e-08
-1.16865e-07
-2.05824e-08
-1.05789e-07
-2.05233e-08
-9.48291e-08
-2.03043e-08
-8.40713e-08
-1.99215e-08
-7.36047e-08
-1.93721e-08
-6.35184e-08
-1.86544e-08
-5.39011e-08
-1.77683e-08
-4.48405e-08
-1.67155e-08
-3.64214e-08
-1.54998e-08
-2.87246e-08
-1.41278e-08
-2.18251e-08
-1.26097e-08
-1.57888e-08
-1.09602e-08
-1.06699e-08
-9.20041e-09
-6.50606e-09
-7.36005e-09
-3.3126e-09
-5.48098e-09
-1.07444e-09
-3.62229e-09
2.64253e-10
-1.8678e-09
8.13595e-10
-3.36447e-10
7.53553e-10
8.0503e-10
3.50769e-10
1.32691e-09
9.05124e-10
1.71634e-10
-1.05842e-09
1.04021e-10
-1.15431e-09
-5.89361e-10
8.96577e-11
-2.1723e-09
2.20638e-09
-4.82177e-09
4.87053e-09
-8.64409e-09
7.84094e-09
-1.36886e-08
1.09411e-08
-1.99601e-08
1.40439e-08
-2.74294e-08
1.70583e-08
-3.60411e-08
1.99196e-08
-4.5721e-08
2.25822e-08
-5.63809e-08
2.50146e-08
-6.79226e-08
2.71956e-08
-8.02413e-08
2.91115e-08
-9.3228e-08
3.07548e-08
-1.06771e-07
3.21222e-08
-1.20759e-07
3.32139e-08
-1.35081e-07
3.40324e-08
-1.49625e-07
3.45828e-08
-1.64284e-07
3.48713e-08
-1.78953e-07
3.49057e-08
-1.9353e-07
3.46945e-08
-2.07917e-07
3.42471e-08
-2.22019e-07
3.35738e-08
-2.35746e-07
3.26848e-08
-2.49014e-07
3.15913e-08
-2.6174e-07
3.03044e-08
-2.73848e-07
2.88358e-08
-2.85267e-07
2.7197e-08
-2.95932e-07
2.54002e-08
-3.05779e-07
2.34574e-08
-3.14754e-07
2.1381e-08
-3.22805e-07
1.91833e-08
-3.29887e-07
1.68771e-08
-3.3596e-07
1.44752e-08
-3.40988e-07
1.19906e-08
-3.44944e-07
9.43645e-09
-3.47803e-07
6.82625e-09
-3.49547e-07
4.17359e-09
-3.50165e-07
1.49232e-09
-3.49652e-07
-1.20347e-09
-3.48006e-07
-3.8995e-09
-3.45235e-07
-6.58125e-09
-3.41351e-07
-9.234e-09
-3.36372e-07
-1.18428e-08
-3.30324e-07
-1.43927e-08
-3.23238e-07
-1.68683e-08
-3.15151e-07
-1.92545e-08
-3.06109e-07
-2.15358e-08
-2.96161e-07
-2.36969e-08
-2.85364e-07
-2.57225e-08
-2.73782e-07
-2.75975e-08
-2.61484e-07
-2.93069e-08
-2.48545e-07
-3.08361e-08
-2.35047e-07
-3.2171e-08
-2.21076e-07
-3.32978e-08
-2.06725e-07
-3.42034e-08
-1.9209e-07
-3.48756e-08
-1.77274e-07
-3.5303e-08
-1.62381e-07
-3.54751e-08
-1.47521e-07
-3.5383e-08
-1.32807e-07
-3.50188e-08
-1.18352e-07
-3.43765e-08
-1.04272e-07
-3.34521e-08
-9.06825e-08
-3.22436e-08
-7.7699e-08
-3.07519e-08
-6.54336e-08
-2.89809e-08
-5.39947e-08
-2.69387e-08
-4.34847e-08
-2.46379e-08
-3.3997e-08
-2.20974e-08
-2.56132e-08
-1.9344e-08
-1.83989e-08
-1.64147e-08
-1.23988e-08
-1.33602e-08
-7.62999e-09
-1.02498e-08
-4.07427e-09
-7.17796e-09
-1.66853e-09
-4.27347e-09
-2.93106e-10
-1.71188e-09
2.41047e-10
2.7079e-10
2.07567e-10
1.36041e-09
1.11271e-09
-4.76383e-11
-1.01073e-09
-6.5498e-10
-5.46963e-10
-2.15964e-09
1.59428e-09
-4.80187e-09
4.84856e-09
-8.74564e-09
8.81431e-09
-1.40903e-08
1.31856e-08
-2.08806e-08
1.77314e-08
-2.91169e-08
2.22802e-08
-3.87636e-08
2.67049e-08
-4.97567e-08
3.09128e-08
-6.20107e-08
3.48363e-08
-7.54233e-08
3.84272e-08
-8.98802e-08
4.16524e-08
-1.05258e-07
4.44896e-08
-1.21429e-07
4.69254e-08
-1.38259e-07
4.8953e-08
-1.55617e-07
5.05711e-08
-1.73367e-07
5.17824e-08
-1.91377e-07
5.25927e-08
-2.09516e-07
5.30107e-08
-2.27657e-07
5.3047e-08
-2.45677e-07
5.27139e-08
-2.63454e-07
5.20249e-08
-2.80875e-07
5.09947e-08
-2.97829e-07
4.96388e-08
-3.14212e-07
4.79735e-08
-3.29923e-07
4.60155e-08
-3.44869e-07
4.37822e-08
-3.58963e-07
4.1291e-08
-3.72123e-07
3.85602e-08
-3.84274e-07
3.5608e-08
-3.95346e-07
3.2453e-08
-4.05277e-07
2.91143e-08
-4.1401e-07
2.56109e-08
-4.21498e-07
2.19624e-08
-4.27696e-07
1.81887e-08
-4.32569e-07
1.43097e-08
-4.36089e-07
1.0346e-08
-4.38233e-07
6.31824e-09
-4.38989e-07
2.24751e-09
-4.38347e-07
-1.84479e-09
-4.3631e-07
-5.93692e-09
-4.32884e-07
-1.00068e-08
-4.28086e-07
-1.40322e-08
-4.21938e-07
-1.79905e-08
-4.14472e-07
-2.18587e-08
-4.05727e-07
-2.56139e-08
-3.95748e-07
-2.9233e-08
-3.84591e-07
-3.26928e-08
-3.72318e-07
-3.59701e-08
-3.58999e-07
-3.90419e-08
-3.44711e-07
-4.18855e-08
-3.29539e-07
-4.44784e-08
-3.13576e-07
-4.67989e-08
-2.96922e-07
-4.88255e-08
-2.79681e-07
-5.0538e-08
-2.61968e-07
-5.1917e-08
-2.43899e-07
-5.29443e-08
-2.25599e-07
-5.3603e-08
-2.07196e-07
-5.38782e-08
-1.88822e-07
-5.37567e-08
-1.70614e-07
-5.32276e-08
-1.52708e-07
-5.22826e-08
-1.35243e-07
-5.09165e-08
-1.18359e-07
-4.91276e-08
-1.02193e-07
-4.69184e-08
-8.68774e-08
-4.42963e-08
-7.25413e-08
-4.12748e-08
-5.93046e-08
-3.78745e-08
-4.72766e-08
-3.41254e-08
-3.65519e-08
-3.00687e-08
-2.72063e-08
-2.57602e-08
-1.9292e-08
-2.12746e-08
-1.28307e-08
-1.67112e-08
-7.80697e-09
-1.22016e-08
-4.16025e-09
-7.92016e-09
-1.77528e-09
-4.09679e-09
-4.7279e-10
-1.03173e-09
1.8359e-12
8.85769e-10
1.11456e-09
-2.94475e-10
-7.16254e-10
-1.51883e-09
6.77464e-10
-3.94159e-09
4.01706e-09
-7.76173e-09
8.66867e-09
-1.31163e-08
1.41689e-08
-2.00866e-08
2.01559e-08
-2.87048e-08
2.63497e-08
-3.8961e-08
3.25363e-08
-5.08099e-08
3.85538e-08
-6.41776e-08
4.42805e-08
-7.89672e-08
4.96258e-08
-9.50635e-08
5.45236e-08
-1.12338e-07
5.89269e-08
-1.30652e-07
6.28034e-08
-1.49859e-07
6.61327e-08
-1.6981e-07
6.89037e-08
-1.90351e-07
7.11126e-08
-2.11331e-07
7.27615e-08
-2.32595e-07
7.38571e-08
-2.53994e-07
7.44102e-08
-2.75382e-07
7.44343e-08
-2.96613e-07
7.39457e-08
-3.17551e-07
7.29624e-08
-3.3806e-07
7.15042e-08
-3.58014e-07
6.95923e-08
-3.77289e-07
6.72488e-08
-3.95771e-07
6.44969e-08
-4.13349e-07
6.13603e-08
-4.29921e-07
5.78636e-08
-4.45393e-07
5.40318e-08
-4.59675e-07
4.98905e-08
-4.72688e-07
4.54657e-08
-4.84358e-07
4.07839e-08
-4.94619e-07
3.5872e-08
-5.03414e-07
3.07573e-08
-5.10692e-07
2.54675e-08
-5.16414e-07
2.00309e-08
-5.20544e-07
1.4476e-08
-5.23057e-07
8.83206e-09
-5.23938e-07
3.12848e-09
-5.23179e-07
-2.60469e-09
-5.20778e-07
-8.33704e-09
-5.16748e-07
-1.40377e-08
-5.11104e-07
-1.96754e-08
-5.03876e-07
-2.52185e-08
-4.951e-07
-3.06353e-08
-4.8482e-07
-3.58934e-08
-4.73092e-07
-4.09608e-08
-4.5998e-07
-4.5805e-08
-4.45556e-07
-5.0394e-08
-4.29902e-07
-5.46957e-08
-4.13109e-07
-5.86786e-08
-3.95276e-07
-6.23116e-08
-3.7651e-07
-6.55646e-08
-3.56928e-07
-6.84081e-08
-3.36652e-07
-7.08142e-08
-3.15813e-07
-7.27562e-08
-2.94547e-07
-7.42093e-08
-2.73e-07
-7.51508e-08
-2.51318e-07
-7.55603e-08
-2.29654e-07
-7.54203e-08
-2.08165e-07
-7.47164e-08
-1.87009e-07
-7.34384e-08
-1.66346e-07
-7.15798e-08
-1.46334e-07
-6.91398e-08
-1.27129e-07
-6.6123e-08
-1.08884e-07
-6.25415e-08
-9.17434e-08
-5.84152e-08
-7.58436e-08
-5.37744e-08
-6.13076e-08
-4.86615e-08
-4.82423e-08
-4.3134e-08
-3.67342e-08
-3.72683e-08
-2.68442e-08
-3.11646e-08
-1.86025e-08
-2.49529e-08
-1.20024e-08
-1.88018e-08
-6.99381e-09
-1.29287e-08
-3.47697e-09
-7.61359e-09
-1.29603e-09
-3.21267e-09
-2.33098e-10
-1.77171e-10
8.81464e-10
-5.50708e-10
-1.65596e-10
-2.42994e-09
2.5567e-09
-5.83061e-09
7.41778e-09
-1.09006e-08
1.37386e-08
-1.77406e-08
2.10089e-08
-2.64058e-08
2.88211e-08
-3.69089e-08
3.68527e-08
-4.92244e-08
4.48519e-08
-6.32942e-08
5.26236e-08
-7.9032e-08
6.00183e-08
-9.63287e-08
6.69224e-08
-1.15056e-07
7.32513e-08
-1.35073e-07
7.89435e-08
-1.56225e-07
8.39558e-08
-1.78353e-07
8.82599e-08
-2.01288e-07
9.18395e-08
-2.24864e-07
9.46879e-08
-2.48908e-07
9.68061e-08
-2.73253e-07
9.82014e-08
-2.97729e-07
9.88865e-08
-3.22173e-07
9.8878e-08
-3.46423e-07
9.81962e-08
-3.70325e-07
9.68641e-08
-3.93727e-07
9.49068e-08
-4.16487e-07
9.23517e-08
-4.38465e-07
8.92274e-08
-4.59533e-07
8.55641e-08
-4.79565e-07
8.1393e-08
-4.98448e-07
7.67461e-08
-5.16073e-07
7.16564e-08
-5.3234e-07
6.61576e-08
-5.47158e-07
6.02841e-08
-5.60445e-07
5.40708e-08
-5.72126e-07
4.75532e-08
-5.82137e-07
4.07677e-08
-5.9042e-07
3.37509e-08
-5.96929e-07
2.65402e-08
-6.01627e-07
1.91735e-08
-6.04484e-07
1.16895e-08
-6.05483e-07
4.12714e-09
-6.04614e-07
-3.4737e-09
-6.01878e-07
-1.10728e-08
-5.97286e-07
-1.86293e-08
-5.9086e-07
-2.61018e-08
-5.8263e-07
-3.34487e-08
-5.72637e-07
-4.06278e-08
-5.60934e-07
-4.75966e-08
-5.47582e-07
-5.43128e-08
-5.32653e-07
-6.07337e-08
-5.1623e-07
-6.6817e-08
-4.98405e-07
-7.25208e-08
-4.7928e-07
-7.78034e-08
-4.58968e-07
-8.26244e-08
-4.37588e-07
-8.6944e-08
-4.15272e-07
-9.0724e-08
-3.92159e-07
-9.39279e-08
-3.68394e-07
-9.65211e-08
-3.44132e-07
-9.84714e-08
-3.19533e-07
-9.97495e-08
-2.94764e-07
-1.00329e-07
-2.69995e-07
-1.00189e-07
-2.45401e-07
-9.93102e-08
-2.21159e-07
-9.76806e-08
-1.97446e-07
-9.52931e-08
-1.74438e-07
-9.21478e-08
-1.52308e-07
-8.82523e-08
-1.31226e-07
-8.36236e-08
-1.11352e-07
-7.82894e-08
-9.28358e-08
-7.22905e-08
-7.58144e-08
-6.56829e-08
-6.04071e-08
-5.85413e-08
-4.67118e-08
-5.09636e-08
-3.4801e-08
-4.30753e-08
-2.47169e-08
-3.5037e-08
-1.64665e-08
-2.70522e-08
-1.00174e-08
-1.93779e-08
-5.2931e-09
-1.23379e-08
-2.17061e-09
-6.33515e-09
-4.78871e-10
-1.86891e-09
4.02595e-10
-8.06473e-10
6.40867e-10
-3.35351e-09
5.10369e-09
-7.7595e-09
1.18238e-08
-1.4117e-08
2.00962e-08
-2.2485e-08
2.93769e-08
-3.28867e-08
3.92228e-08
-4.53101e-08
4.92761e-08
-5.97101e-08
5.92519e-08
-7.60118e-08
6.89254e-08
-9.41146e-08
7.81211e-08
-1.13895e-07
8.67033e-08
-1.35213e-07
9.45693e-08
-1.57913e-07
1.01643e-07
-1.81827e-07
1.0787e-07
-2.0678e-07
1.13213e-07
-2.32592e-07
1.17652e-07
-2.59079e-07
1.21175e-07
-2.86055e-07
1.23782e-07
-3.13336e-07
1.25482e-07
-3.40737e-07
1.26288e-07
-3.68079e-07
1.2622e-07
-3.95187e-07
1.25303e-07
-4.21888e-07
1.23565e-07
-4.48019e-07
1.21037e-07
-4.7342e-07
1.17753e-07
-4.97941e-07
1.13748e-07
-5.21437e-07
1.0906e-07
-5.43773e-07
1.03729e-07
-5.64821e-07
9.77945e-08
-5.84463e-07
9.12984e-08
-6.02589e-07
8.42832e-08
-6.19097e-07
7.67925e-08
-6.33897e-07
6.88707e-08
-6.46907e-07
6.05629e-08
-6.58054e-07
5.19151e-08
-6.67277e-07
4.2974e-08
-6.74524e-07
3.37871e-08
-6.79754e-07
2.44028e-08
-6.82934e-07
1.48698e-08
-6.84045e-07
5.23812e-09
-6.83077e-07
-4.44187e-09
-6.80031e-07
-1.4119e-08
-6.74919e-07
-2.37413e-08
-6.67764e-07
-3.32564e-08
-6.58601e-07
-4.26114e-08
-6.47476e-07
-5.17527e-08
-6.34446e-07
-6.06269e-08
-6.19579e-07
-6.91799e-08
-6.02954e-07
-7.73581e-08
-5.84664e-07
-8.51079e-08
-5.64808e-07
-9.23763e-08
-5.435e-07
-9.9111e-08
-5.20864e-07
-1.05261e-07
-4.97032e-07
-1.10776e-07
-4.72148e-07
-1.15608e-07
-4.46364e-07
-1.19712e-07
-4.19841e-07
-1.23044e-07
-3.92749e-07
-1.25564e-07
-3.65262e-07
-1.27236e-07
-3.37564e-07
-1.28027e-07
-3.09842e-07
-1.27911e-07
-2.82285e-07
-1.26867e-07
-2.55088e-07
-1.24878e-07
-2.28444e-07
-1.21938e-07
-2.02545e-07
-1.18047e-07
-1.7758e-07
-1.13217e-07
-1.53732e-07
-1.07471e-07
-1.31178e-07
-1.00844e-07
-1.1008e-07
-9.33878e-08
-9.05904e-08
-8.5173e-08
-7.284e-08
-7.62917e-08
-5.69407e-08
-6.68629e-08
-4.29787e-08
-5.70373e-08
-3.10117e-08
-4.7004e-08
-2.1065e-08
-3.69989e-08
-1.31286e-08
-2.73142e-08
-7.15558e-09
-1.8311e-08
-3.06108e-09
-1.04296e-08
-7.25251e-10
-4.20474e-09
-3.22652e-10
-1.05673e-09
1.69762e-09
-4.26931e-09
8.31623e-09
-9.68646e-09
1.7241e-08
-1.73451e-08
2.77547e-08
-2.72596e-08
3.92915e-08
-3.94179e-08
5.13812e-08
-5.37796e-08
6.36377e-08
-7.02762e-08
7.57485e-08
-8.88136e-08
8.74627e-08
-1.09274e-07
9.85813e-08
-1.31519e-07
1.08948e-07
-1.55393e-07
1.18444e-07
-1.80728e-07
1.26977e-07
-2.07342e-07
1.34484e-07
-2.35047e-07
1.40918e-07
-2.63648e-07
1.46253e-07
-2.92947e-07
1.50474e-07
-3.22746e-07
1.53581e-07
-3.52844e-07
1.5558e-07
-3.83045e-07
1.56489e-07
-4.13155e-07
1.5633e-07
-4.42984e-07
1.55132e-07
-4.72348e-07
1.52929e-07
-5.01068e-07
1.49757e-07
-5.28973e-07
1.45658e-07
-5.55899e-07
1.40675e-07
-5.81692e-07
1.34853e-07
-6.06203e-07
1.2824e-07
-6.29294e-07
1.20886e-07
-6.50838e-07
1.12842e-07
-6.70715e-07
1.0416e-07
-6.88815e-07
9.48926e-08
-7.05039e-07
8.50952e-08
-7.193e-07
7.48232e-08
-7.31518e-07
6.41332e-08
-7.41626e-07
5.30825e-08
-7.49569e-07
4.17299e-08
-7.55301e-07
3.01346e-08
-7.58788e-07
1.83571e-08
-7.60009e-07
6.45858e-09
-7.58952e-07
-5.49875e-09
-7.55619e-07
-1.74519e-08
-7.50023e-07
-2.93371e-08
-7.4219e-07
-4.10897e-08
-7.32156e-07
-5.26448e-08
-7.19972e-07
-6.39367e-08
-7.057e-07
-7.48994e-08
-6.89413e-07
-8.5467e-08
-6.71197e-07
-9.55735e-08
-6.51152e-07
-1.05153e-07
-6.29387e-07
-1.14141e-07
-6.06024e-07
-1.22474e-07
-5.81197e-07
-1.30088e-07
-5.55049e-07
-1.36923e-07
-5.27736e-07
-1.42921e-07
-4.99422e-07
-1.48026e-07
-4.70282e-07
-1.52184e-07
-4.40497e-07
-1.55349e-07
-4.10258e-07
-1.57475e-07
-3.7976e-07
-1.58525e-07
-3.49207e-07
-1.58465e-07
-3.18803e-07
-1.57271e-07
-2.88756e-07
-1.54925e-07
-2.59275e-07
-1.51419e-07
-2.30566e-07
-1.46756e-07
-2.02834e-07
-1.40949e-07
-1.76276e-07
-1.34029e-07
-1.51083e-07
-1.26038e-07
-1.27431e-07
-1.1704e-07
-1.05485e-07
-1.07119e-07
-8.53926e-08
-9.63843e-08
-6.72794e-08
-8.49762e-08
-5.12481e-08
-7.30686e-08
-3.7375e-08
-6.08772e-08
-2.5707e-08
-4.86668e-08
-1.62607e-08
-3.67605e-08
-9.02179e-09
-2.55499e-08
-3.94657e-09
-1.55049e-08
-9.66883e-10
-7.18441e-09
-1.28953e-09
-1.29908e-09
2.99674e-09
-5.16622e-09
1.21833e-08
-1.15866e-08
2.36614e-08
-2.05434e-08
3.67115e-08
-3.2006e-08
5.07541e-08
-4.59252e-08
6.53003e-08
-6.22293e-08
7.99419e-08
-8.08245e-08
9.43436e-08
-1.01594e-07
1.08232e-07
-1.24402e-07
1.21389e-07
-1.49092e-07
1.33639e-07
-1.75495e-07
1.44846e-07
-2.03425e-07
1.54908e-07
-2.32689e-07
1.63748e-07
-2.63085e-07
1.71314e-07
-2.94404e-07
1.77572e-07
-3.26436e-07
1.82506e-07
-3.58968e-07
1.86113e-07
-3.91789e-07
1.88401e-07
-4.24687e-07
1.89387e-07
-4.57456e-07
1.891e-07
-4.89895e-07
1.87571e-07
-5.21806e-07
1.8484e-07
-5.53e-07
1.80951e-07
-5.83293e-07
1.75951e-07
-6.12511e-07
1.69893e-07
-6.40487e-07
1.62829e-07
-6.67065e-07
1.54818e-07
-6.92097e-07
1.45918e-07
-7.15445e-07
1.3619e-07
-7.36982e-07
1.25696e-07
-7.5659e-07
1.14501e-07
-7.74165e-07
1.0267e-07
-7.89611e-07
9.02689e-08
-8.02844e-07
7.73664e-08
-8.13793e-07
6.40313e-08
-8.22397e-07
5.0334e-08
-8.28608e-07
3.63459e-08
-8.3239e-07
2.21393e-08
-8.3372e-07
7.78803e-09
-8.32585e-07
-6.63339e-09
-8.28988e-07
-2.10493e-08
-8.22942e-07
-3.53831e-08
-8.14474e-07
-4.95574e-08
-8.03625e-07
-6.34941e-08
-7.90447e-07
-7.71147e-08
-7.75006e-07
-9.034e-08
-7.57382e-07
-1.03091e-07
-7.37667e-07
-1.15289e-07
-7.15965e-07
-1.26855e-07
-6.92394e-07
-1.37712e-07
-6.67085e-07
-1.47783e-07
-6.4018e-07
-1.56993e-07
-6.11832e-07
-1.65271e-07
-5.82208e-07
-1.72546e-07
-5.51481e-07
-1.78752e-07
-5.19839e-07
-1.83826e-07
-4.87476e-07
-1.87712e-07
-4.54594e-07
-1.90357e-07
-4.21403e-07
-1.91716e-07
-3.88117e-07
-1.9175e-07
-3.54957e-07
-1.90431e-07
-3.22143e-07
-1.87738e-07
-2.89899e-07
-1.83663e-07
-2.58444e-07
-1.7821e-07
-2.27998e-07
-1.71395e-07
-1.98772e-07
-1.63255e-07
-1.7097e-07
-1.5384e-07
-1.44784e-07
-1.43225e-07
-1.20394e-07
-1.31509e-07
-9.79621e-08
-1.18817e-07
-7.7631e-08
-1.05307e-07
-5.95221e-08
-9.11774e-08
-4.37327e-08
-7.66666e-08
-3.03342e-08
-6.20653e-08
-1.9372e-08
-4.77227e-08
-1.08664e-08
-3.40555e-08
-4.81554e-09
-2.15557e-08
-1.2012e-09
-1.07988e-08
-2.49073e-09
-1.53266e-09
4.52942e-09
-6.03875e-09
1.66894e-08
-1.34464e-08
3.1069e-08
-2.36878e-08
4.69529e-08
-3.66886e-08
6.37549e-08
-5.23612e-08
8.0973e-08
-7.06021e-08
9.81828e-08
-9.12894e-08
1.15031e-07
-1.14283e-07
1.31226e-07
-1.39425e-07
1.46531e-07
-1.66543e-07
1.60756e-07
-1.95448e-07
1.73751e-07
-2.25942e-07
1.85402e-07
-2.57815e-07
1.95622e-07
-2.90853e-07
2.04351e-07
-3.24833e-07
2.11553e-07
-3.59533e-07
2.17206e-07
-3.94727e-07
2.21307e-07
-4.3019e-07
2.23864e-07
-4.65701e-07
2.24899e-07
-5.01042e-07
2.2444e-07
-5.35998e-07
2.22527e-07
-5.70362e-07
2.19204e-07
-6.03932e-07
2.14522e-07
-6.36517e-07
2.08536e-07
-6.67931e-07
2.01306e-07
-6.97998e-07
1.92896e-07
-7.26552e-07
1.83372e-07
-7.53437e-07
1.72803e-07
-7.78508e-07
1.61261e-07
-8.01629e-07
1.48817e-07
-8.22676e-07
1.35549e-07
-8.41539e-07
1.21532e-07
-8.58116e-07
1.06846e-07
-8.72318e-07
9.15689e-08
-8.8407e-07
7.57835e-08
-8.93308e-07
5.9572e-08
-8.99981e-07
4.30185e-08
-9.0405e-07
2.62084e-08
-9.0549e-07
9.22818e-09
-9.04289e-07
-7.83417e-09
-9.00449e-07
-2.48897e-08
-8.93983e-07
-4.18484e-08
-8.84922e-07
-5.86191e-08
-8.73306e-07
-7.51102e-08
-8.59191e-07
-9.12292e-08
-8.42648e-07
-1.06883e-07
-8.23759e-07
-1.2198e-07
-8.02623e-07
-1.36425e-07
-7.79349e-07
-1.50129e-07
-7.54062e-07
-1.62999e-07
-7.269e-07
-1.74945e-07
-6.98012e-07
-1.85881e-07
-6.67562e-07
-1.95721e-07
-6.35723e-07
-2.04385e-07
-6.02682e-07
-2.11793e-07
-5.68635e-07
-2.17874e-07
-5.33786e-07
-2.22561e-07
-4.98351e-07
-2.25792e-07
-4.6255e-07
-2.27516e-07
-4.26612e-07
-2.27689e-07
-3.90767e-07
-2.26276e-07
-3.55252e-07
-2.23254e-07
-3.20301e-07
-2.18614e-07
-2.8615e-07
-2.12361e-07
-2.53029e-07
-2.04516e-07
-2.21166e-07
-1.95118e-07
-1.90779e-07
-1.84227e-07
-1.62075e-07
-1.71929e-07
-1.35249e-07
-1.58334e-07
-1.10482e-07
-1.43584e-07
-8.79331e-08
-1.27856e-07
-6.77456e-08
-1.11365e-07
-5.00391e-08
-9.43731e-08
-3.49115e-08
-7.7193e-08
-2.24385e-08
-6.01956e-08
-1.26757e-08
-4.38182e-08
-5.66238e-09
-2.85691e-08
-1.42727e-09
-1.50339e-08
-3.91799e-09
-1.75744e-09
6.28686e-09
-6.88495e-09
2.18169e-08
-1.52595e-08
3.94436e-08
-2.6766e-08
5.84595e-08
-4.12875e-08
7.82763e-08
-5.86989e-08
9.83844e-08
-7.88636e-08
1.18347e-07
-1.01631e-07
1.37798e-07
-1.26836e-07
1.56431e-07
-1.54298e-07
1.73993e-07
-1.83824e-07
1.90283e-07
-2.1521e-07
2.05137e-07
-2.48239e-07
2.18431e-07
-2.82689e-07
2.30071e-07
-3.18328e-07
2.39991e-07
-3.54923e-07
2.48148e-07
-3.92238e-07
2.5452e-07
-4.30035e-07
2.59103e-07
-4.68077e-07
2.61907e-07
-5.06133e-07
2.62954e-07
-5.43972e-07
2.62279e-07
-5.81369e-07
2.59925e-07
-6.18108e-07
2.55943e-07
-6.53977e-07
2.50391e-07
-6.88773e-07
2.43332e-07
-7.22304e-07
2.34837e-07
-7.54383e-07
2.24976e-07
-7.84838e-07
2.13827e-07
-8.13504e-07
2.01469e-07
-8.40229e-07
1.87985e-07
-8.6487e-07
1.73459e-07
-8.87299e-07
1.57978e-07
-9.07398e-07
1.41631e-07
-9.25061e-07
1.24509e-07
-9.40196e-07
1.06703e-07
-9.52722e-07
8.83093e-08
-9.62572e-07
6.94222e-08
-9.69693e-07
5.01393e-08
-9.74044e-07
3.05594e-08
-9.75598e-07
1.07828e-08
-9.74344e-07
-9.08884e-09
-9.70281e-07
-2.89525e-08
-9.63425e-07
-4.87041e-08
-9.53806e-07
-6.82383e-08
-9.41467e-07
-8.74489e-08
-9.26467e-07
-1.06229e-07
-9.08879e-07
-1.24472e-07
-8.8879e-07
-1.42069e-07
-8.66301e-07
-1.58915e-07
-8.41528e-07
-1.74902e-07
-8.14601e-07
-1.89925e-07
-7.85665e-07
-2.03881e-07
-7.54876e-07
-2.1667e-07
-7.22405e-07
-2.28192e-07
-6.88435e-07
-2.38355e-07
-6.5316e-07
-2.47068e-07
-6.16785e-07
-2.54249e-07
-5.79528e-07
-2.59819e-07
-5.41611e-07
-2.63709e-07
-5.03269e-07
-2.65859e-07
-4.64739e-07
-2.66218e-07
-4.26267e-07
-2.64748e-07
-3.881e-07
-2.61421e-07
-3.50486e-07
-2.56228e-07
-3.13673e-07
-2.49174e-07
-2.77908e-07
-2.40281e-07
-2.43431e-07
-2.29595e-07
-2.10475e-07
-2.17183e-07
-1.79265e-07
-2.0314e-07
-1.50011e-07
-1.87588e-07
-1.22913e-07
-1.70683e-07
-9.81501e-08
-1.52618e-07
-7.58874e-08
-1.33628e-07
-5.62691e-08
-1.13991e-07
-3.94204e-08
-9.40416e-08
-2.54485e-08
-7.41676e-08
-1.44439e-08
-5.48228e-08
-6.48523e-09
-3.65277e-08
-1.64507e-09
-1.9874e-08
-5.56306e-09
-1.9739e-09
8.26078e-09
-7.70506e-09
2.7548e-08
-1.70245e-08
4.8763e-08
-2.97734e-08
7.12084e-08
-4.57942e-08
9.42971e-08
-6.49251e-08
1.17515e-07
-8.69964e-08
1.40419e-07
-1.11828e-07
1.6263e-07
-1.39228e-07
1.83831e-07
-1.68994e-07
2.0376e-07
-2.00912e-07
2.22201e-07
-2.34758e-07
2.38983e-07
-2.70299e-07
2.53972e-07
-3.07296e-07
2.67068e-07
-3.45504e-07
2.78199e-07
-3.84677e-07
2.8732e-07
-4.24564e-07
2.94407e-07
-4.64916e-07
2.99456e-07
-5.05487e-07
3.02477e-07
-5.46031e-07
3.03498e-07
-5.86308e-07
3.02557e-07
-6.26086e-07
2.99702e-07
-6.65135e-07
2.94992e-07
-7.03236e-07
2.88492e-07
-7.40179e-07
2.80275e-07
-7.7576e-07
2.70418e-07
-8.09787e-07
2.59004e-07
-8.4208e-07
2.4612e-07
-8.72467e-07
2.31856e-07
-9.0079e-07
2.16307e-07
-9.269e-07
1.99569e-07
-9.50663e-07
1.81741e-07
-9.71956e-07
1.62924e-07
-9.90669e-07
1.43222e-07
-1.0067e-06
1.2274e-07
-1.01998e-06
1.01586e-07
-1.03043e-06
7.98683e-08
-1.03799e-06
5.76991e-08
-1.04262e-06
3.51907e-08
-1.04429e-06
1.24575e-08
-1.043e-06
-1.03844e-08
-1.03873e-06
-3.32176e-08
-1.03151e-06
-5.59231e-08
-1.02137e-06
-7.83809e-08
-1.00835e-06
-1.0047e-07
-9.92511e-07
-1.22068e-07
-9.73929e-07
-1.43054e-07
-9.52695e-07
-1.63303e-07
-9.28913e-07
-1.82696e-07
-9.02705e-07
-2.0111e-07
-8.74205e-07
-2.18425e-07
-8.43563e-07
-2.34524e-07
-8.10942e-07
-2.49291e-07
-7.76519e-07
-2.62615e-07
-7.40485e-07
-2.74389e-07
-7.03043e-07
-2.84511e-07
-6.64406e-07
-2.92885e-07
-6.248e-07
-2.99424e-07
-5.84461e-07
-3.04049e-07
-5.4363e-07
-3.0669e-07
-5.02558e-07
-3.0729e-07
-4.61501e-07
-3.05804e-07
-4.20719e-07
-3.02203e-07
-3.80474e-07
-2.96474e-07
-3.41026e-07
-2.88621e-07
-3.02637e-07
-2.7867e-07
-2.65561e-07
-2.66671e-07
-2.30048e-07
-2.52696e-07
-1.96339e-07
-2.36849e-07
-1.64664e-07
-2.19263e-07
-1.35238e-07
-2.00108e-07
-1.08267e-07
-1.7959e-07
-8.39346e-08
-1.5796e-07
-6.24128e-08
-1.35513e-07
-4.38548e-08
-1.126e-07
-2.83988e-08
-8.96236e-08
-1.61701e-08
-6.70515e-08
-7.28461e-09
-4.54131e-08
-1.85516e-09
-2.53035e-08
-7.41822e-09
-2.1828e-09
1.04436e-08
-8.50062e-09
3.38658e-08
-1.87432e-08
5.90056e-08
-3.2711e-08
8.51763e-08
-5.02082e-08
1.11794e-07
-7.10371e-08
1.38344e-07
-9.49954e-08
1.64377e-07
-1.21873e-07
1.89508e-07
-1.51453e-07
2.1341e-07
-1.83506e-07
2.35813e-07
-2.17798e-07
2.56493e-07
-2.54085e-07
2.7527e-07
-2.92117e-07
2.92004e-07
-3.31638e-07
3.06589e-07
-3.72388e-07
3.1895e-07
-4.14107e-07
3.29039e-07
-4.56532e-07
3.36832e-07
-4.99402e-07
3.42326e-07
-5.42458e-07
3.45533e-07
-5.85445e-07
3.46485e-07
-6.28114e-07
3.45225e-07
-6.7022e-07
3.41808e-07
-7.11527e-07
3.36299e-07
-7.51808e-07
3.28772e-07
-7.90841e-07
3.19308e-07
-8.28419e-07
3.07995e-07
-8.64342e-07
2.94926e-07
-8.98421e-07
2.80199e-07
-9.30479e-07
2.63915e-07
-9.60353e-07
2.46181e-07
-9.87888e-07
2.27105e-07
-1.01295e-06
2.06799e-07
-1.0354e-06
1.85377e-07
-1.05513e-06
1.62956e-07
-1.07205e-06
1.39654e-07
-1.08606e-06
1.15594e-07
-1.09709e-06
9.08987e-08
-1.10508e-06
6.56926e-08
-1.10999e-06
4.01033e-08
-1.11179e-06
1.42598e-08
-1.11047e-06
-1.1707e-08
-1.10602e-06
-3.76647e-08
-1.09847e-06
-6.34793e-08
-1.08783e-06
-8.90153e-08
-1.07417e-06
-1.14136e-07
-1.05753e-06
-1.38705e-07
-1.038e-06
-1.62583e-07
-1.01567e-06
-1.85633e-07
-9.90653e-07
-2.07716e-07
-9.63065e-07
-2.28698e-07
-9.33049e-07
-2.48441e-07
-9.00759e-07
-2.66813e-07
-8.66364e-07
-2.83685e-07
-8.30049e-07
-2.98931e-07
-7.92008e-07
-3.12429e-07
-7.52454e-07
-3.24065e-07
-7.11608e-07
-3.33731e-07
-6.69704e-07
-3.41328e-07
-6.26986e-07
-3.46766e-07
-5.83708e-07
-3.49968e-07
-5.40131e-07
-3.50867e-07
-4.96522e-07
-3.49413e-07
-4.53153e-07
-3.45573e-07
-4.10298e-07
-3.39329e-07
-3.68233e-07
-3.30686e-07
-3.27233e-07
-3.1967e-07
-2.87568e-07
-3.06335e-07
-2.49505e-07
-2.90759e-07
-2.13302e-07
-2.73052e-07
-1.79207e-07
-2.53358e-07
-1.47459e-07
-2.31856e-07
-1.18282e-07
-2.08767e-07
-9.18874e-08
-1.84354e-07
-6.84714e-08
-1.58929e-07
-4.82166e-08
-1.32854e-07
-3.12922e-08
-1.06548e-07
-1.7857e-08
-8.04867e-08
-8.06254e-09
-5.52076e-08
-2.05841e-09
-3.13076e-08
-9.47664e-09
-2.38505e-09
1.28287e-08
-9.274e-09
4.07547e-08
-2.0419e-08
7.01506e-08
-3.55831e-08
1.0034e-07
-5.45338e-08
1.30745e-07
-7.7039e-08
1.60849e-07
-1.02864e-07
1.90202e-07
-1.3177e-07
2.18414e-07
-1.63511e-07
2.45152e-07
-1.97836e-07
2.70138e-07
-2.34486e-07
2.93143e-07
-2.73198e-07
3.13981e-07
-3.13702e-07
3.32508e-07
-3.55726e-07
3.48613e-07
-3.98997e-07
3.6222e-07
-4.43237e-07
3.73279e-07
-4.88171e-07
3.81767e-07
-5.33527e-07
3.87682e-07
-5.79035e-07
3.91041e-07
-6.24429e-07
3.91879e-07
-6.69449e-07
3.90245e-07
-7.13843e-07
3.86202e-07
-7.57365e-07
3.79822e-07
-7.9978e-07
3.71187e-07
-8.4086e-07
3.60389e-07
-8.8039e-07
3.47525e-07
-9.18163e-07
3.32699e-07
-9.53986e-07
3.16021e-07
-9.87675e-07
2.97605e-07
-1.01906e-06
2.77567e-07
-1.04799e-06
2.5603e-07
-1.07431e-06
2.33119e-07
-1.09789e-06
2.08961e-07
-1.11862e-06
1.83687e-07
-1.1364e-06
1.57429e-07
-1.15113e-06
1.30323e-07
-1.16273e-06
1.02506e-07
-1.17116e-06
7.41177e-08
-1.17636e-06
4.53007e-08
-1.1783e-06
1.61988e-08
-1.17696e-06
-1.30421e-08
-1.17235e-06
-4.2274e-08
-1.16448e-06
-7.13475e-08
-1.15339e-06
-1.00111e-07
-1.13911e-06
-1.28413e-07
-1.12171e-06
-1.561e-07
-1.10128e-06
-1.83017e-07
-1.0779e-06
-2.09011e-07
-1.05169e-06