/*--------------------------------*- C++ -*----------------------------------*\
  =========                 |
  \\      /  F ield         | OpenFOAM: The Open Source CFD Toolbox
   \\    /   O peration     | Website:  https://openfoam.org
    \\  /    A nd           | Version:  7
     \\/     M anipulation  |
\*---------------------------------------------------------------------------*/
FoamFile
{
    version     2.0;
    format      ascii;
    class       volVectorField;
    location    "0.25";
    object      U;
}
// * * * * * * * * * * * * * * * * * * * * * * * * * * * * * * * * * * * * * //

dimensions      [0 1 -1 0 0 0 0];

internalField   nonuniform List<vector> 
6400
(
(7.24287e-06 -7.25416e-06 0)
(2.9788e-05 -1.44371e-05 0)
(5.92667e-05 -1.41634e-05 0)
(8.0549e-05 -9.72181e-06 0)
(8.53678e-05 -3.41479e-06 0)
(7.04795e-05 3.55374e-06 0)
(3.47604e-05 1.05697e-05 0)
(-2.17584e-05 1.73154e-05 0)
(-9.83227e-05 2.36294e-05 0)
(-0.000193742 2.94303e-05 0)
(-0.000306571 3.46791e-05 0)
(-0.000435212 3.93607e-05 0)
(-0.000577986 4.34741e-05 0)
(-0.000733177 4.70264e-05 0)
(-0.000899056 5.00297e-05 0)
(-0.00107391 5.24988e-05 0)
(-0.00125604 5.44504e-05 0)
(-0.00144381 5.59031e-05 0)
(-0.0016356 5.68767e-05 0)
(-0.00182988 5.73916e-05 0)
(-0.00202514 5.7468e-05 0)
(-0.00221994 5.71261e-05 0)
(-0.00241292 5.63864e-05 0)
(-0.00260277 5.52698e-05 0)
(-0.00278824 5.37968e-05 0)
(-0.00296814 5.19878e-05 0)
(-0.00314138 4.9863e-05 0)
(-0.0033069 4.74425e-05 0)
(-0.00346372 4.47462e-05 0)
(-0.00361093 4.1794e-05 0)
(-0.0037477 3.86057e-05 0)
(-0.00387323 3.52015e-05 0)
(-0.00398683 3.16012e-05 0)
(-0.00408786 2.78249e-05 0)
(-0.00417574 2.38926e-05 0)
(-0.00424999 1.98251e-05 0)
(-0.00431018 1.5643e-05 0)
(-0.00435595 1.13673e-05 0)
(-0.00438702 7.01961e-06 0)
(-0.00440319 2.62161e-06 0)
(-0.00440432 -1.80446e-06 0)
(-0.00439039 -6.23574e-06 0)
(-0.00436139 -1.06491e-05 0)
(-0.00431746 -1.50208e-05 0)
(-0.00425878 -1.93266e-05 0)
(-0.00418563 -2.35419e-05 0)
(-0.00409836 -2.76416e-05 0)
(-0.00399743 -3.16005e-05 0)
(-0.00388336 -3.53927e-05 0)
(-0.00375678 -3.89921e-05 0)
(-0.0036184 -4.23728e-05 0)
(-0.003469 -4.55085e-05 0)
(-0.00330947 -4.83733e-05 0)
(-0.00314078 -5.09412e-05 0)
(-0.00296398 -5.31867e-05 0)
(-0.00278021 -5.50846e-05 0)
(-0.00259068 -5.66105e-05 0)
(-0.00239669 -5.77408e-05 0)
(-0.00219961 -5.84525e-05 0)
(-0.00200086 -5.87239e-05 0)
(-0.00180196 -5.85348e-05 0)
(-0.00160447 -5.78661e-05 0)
(-0.00140999 -5.67005e-05 0)
(-0.00122019 -5.50223e-05 0)
(-0.00103675 -5.2818e-05 0)
(-0.000861399 -5.00765e-05 0)
(-0.000695866 -4.67899e-05 0)
(-0.000541877 -4.29535e-05 0)
(-0.000401141 -3.85666e-05 0)
(-0.000275321 -3.36355e-05 0)
(-0.000166001 -2.8175e-05 0)
(-7.46405e-05 -2.22148e-05 0)
(-2.50812e-06 -1.58086e-05 0)
(4.94269e-05 -9.05375e-06 0)
(8.06697e-05 -2.12927e-06 0)
(9.14846e-05 4.63064e-06 0)
(8.33164e-05 1.06008e-05 0)
(5.97273e-05 1.45857e-05 0)
(2.92211e-05 1.43428e-05 0)
(6.87149e-06 6.86677e-06 0)
(1.44456e-05 -2.98001e-05 0)
(5.15117e-05 -5.14496e-05 0)
(8.97329e-05 -4.40157e-05 0)
(0.000103409 -1.90408e-05 0)
(7.68358e-05 1.5362e-05 0)
(2.17052e-06 5.4163e-05 0)
(-0.000124281 9.42821e-05 0)
(-0.000303434 0.000133832 0)
(-0.000534242 0.000171654 0)
(-0.000814342 0.000207036 0)
(-0.00114049 0.000239539 0)
(-0.00150889 0.0002689 0)
(-0.00191534 0.000294975 0)
(-0.00235544 0.000317697 0)
(-0.0028247 0.000337059 0)
(-0.00331854 0.000353088 0)
(-0.00383242 0.00036584 0)
(-0.00436186 0.00037539 0)
(-0.00490247 0.000381832 0)
(-0.00544997 0.000385268 0)
(-0.00600021 0.000385812 0)
(-0.00654919 0.00038358 0)
(-0.00709306 0.000378694 0)
(-0.00762816 0.000371279 0)
(-0.00815097 0.000361465 0)
(-0.00865816 0.000349381 0)
(-0.0091466 0.000335158 0)
(-0.00961331 0.000318928 0)
(-0.0100555 0.000300824 0)
(-0.0104706 0.00028098 0)
(-0.0108563 0.00025953 0)
(-0.0112102 0.00023661 0)
(-0.0115305 0.000212357 0)
(-0.0118153 0.000186908 0)
(-0.0120629 0.000160404 0)
(-0.012272 0.000132984 0)
(-0.0124414 0.000104793 0)
(-0.0125701 7.59758e-05 0)
(-0.0126572 4.66804e-05 0)
(-0.0127023 1.70574e-05 0)
(-0.012705 -1.27401e-05 0)
(-0.0126651 -4.25562e-05 0)
(-0.0125828 -7.22318e-05 0)
(-0.0124583 -0.000101606 0)
(-0.0122923 -0.000130514 0)
(-0.0120855 -0.000158789 0)
(-0.011839 -0.000186262 0)
(-0.0115541 -0.000212763 0)
(-0.0112322 -0.00023812 0)
(-0.0108752 -0.00026216 0)
(-0.0104851 -0.000284711 0)
(-0.0100641 -0.000305599 0)
(-0.00961465 -0.000324655 0)
(-0.00913959 -0.000341711 0)
(-0.00864185 -0.000356599 0)
(-0.00812462 -0.000369161 0)
(-0.00759131 -0.000379241 0)
(-0.00704556 -0.00038669 0)
(-0.00649117 -0.000391369 0)
(-0.00593215 -0.000393146 0)
(-0.00537268 -0.000391901 0)
(-0.00481705 -0.000387528 0)
(-0.00426972 -0.000379934 0)
(-0.00373523 -0.000369044 0)
(-0.00321818 -0.000354803 0)
(-0.00272324 -0.000337179 0)
(-0.00225502 -0.00031617 0)
(-0.00181812 -0.000291808 0)
(-0.00141699 -0.00026417 0)
(-0.00105587 -0.000233396 0)
(-0.000738697 -0.000199706 0)
(-0.000468933 -0.00016344 0)
(-0.000249372 -0.000125114 0)
(-8.18416e-05 -8.552e-05 0)
(3.32269e-05 -4.58837e-05 0)
(9.74196e-05 -8.14066e-06 0)
(0.000115117 2.46235e-05 0)
(9.47838e-05 4.74593e-05 0)
(5.25853e-05 5.25306e-05 0)
(1.4345e-05 2.91897e-05 0)
(1.42798e-05 -5.93785e-05 0)
(4.45185e-05 -8.9795e-05 0)
(6.11666e-05 -6.03344e-05 0)
(3.54385e-05 6.85203e-06 0)
(-5.10164e-05 9.63583e-05 0)
(-0.00020841 0.000197536 0)
(-0.000442067 0.000303155 0)
(-0.000753688 0.000408379 0)
(-0.00114224 0.000509988 0)
(-0.00160471 0.00060584 0)
(-0.00213668 0.000694523 0)
(-0.00273278 0.000775121 0)
(-0.00338694 0.000847064 0)
(-0.00409265 0.000910031 0)
(-0.00484315 0.000963877 0)
(-0.00563155 0.00100859 0)
(-0.0064509 0.00104425 0)
(-0.0072943 0.00107101 0)
(-0.00815495 0.00108907 0)
(-0.00902618 0.0010987 0)
(-0.00990151 0.00110016 0)
(-0.0107747 0.00109378 0)
(-0.0116396 0.00107987 0)
(-0.0124904 0.00105876 0)
(-0.0133217 0.00103083 0)
(-0.0141282 0.000996411 0)
(-0.0149048 0.000955884 0)
(-0.0156468 0.000909617 0)
(-0.0163498 0.000857986 0)
(-0.0170098 0.000801371 0)
(-0.0176228 0.000740157 0)
(-0.0181854 0.000674732 0)
(-0.0186944 0.000605488 0)
(-0.0191469 0.000532822 0)
(-0.0195403 0.000457137 0)
(-0.0198724 0.000378838 0)
(-0.0201412 0.000298341 0)
(-0.0203453 0.000216063 0)
(-0.0204833 0.000132432 0)
(-0.0205545 4.78803e-05 0)
(-0.0205581 -3.71498e-05 0)
(-0.0204941 -0.00012221 0)
(-0.0203626 -0.000206845 0)
(-0.0201642 -0.00029059 0)
(-0.0198997 -0.000372977 0)
(-0.0195706 -0.000453528 0)
(-0.0191783 -0.000531762 0)
(-0.0187251 -0.000607194 0)
(-0.0182132 -0.000679336 0)
(-0.0176457 -0.000747698 0)
(-0.0170256 -0.000811791 0)
(-0.0163565 -0.000871131 0)
(-0.0156425 -0.000925236 0)
(-0.0148879 -0.000973636 0)
(-0.0140973 -0.00101587 0)
(-0.0132758 -0.00105149 0)
(-0.0124289 -0.00108007 0)
(-0.0115622 -0.00110119 0)
(-0.0106817 -0.00111449 0)
(-0.00979372 -0.0011196 0)
(-0.00890478 -0.00111622 0)
(-0.00802162 -0.00110406 0)
(-0.00715115 -0.00108289 0)
(-0.00630043 -0.00105255 0)
(-0.00547655 -0.00101292 0)
(-0.00468667 -0.000963972 0)
(-0.00393786 -0.000905766 0)
(-0.00323703 -0.000838477 0)
(-0.00259087 -0.000762428 0)
(-0.00200563 -0.000678129 0)
(-0.00148702 -0.000586344 0)
(-0.0010399 -0.000488187 0)
(-0.000668072 -0.000385264 0)
(-0.00037377 -0.000279893 0)
(-0.000157173 -0.000175436 0)
(-1.56625e-05 -7.68067e-05 0)
(5.70019e-05 8.80121e-06 0)
(7.18388e-05 7.09629e-05 0)
(4.7931e-05 9.48515e-05 0)
(1.46688e-05 5.97605e-05 0)
(1.00443e-05 -8.11245e-05 0)
(2.0359e-05 -0.00010423 0)
(-4.3892e-06 -3.4964e-05 0)
(-9.09493e-05 9.38603e-05 0)
(-0.000257454 0.00025949 0)
(-0.000514839 0.000445389 0)
(-0.000869009 0.0006397 0)
(-0.00132191 0.000834071 0)
(-0.00187239 0.00102265 0)
(-0.00251692 0.00120137 0)
(-0.0032502 0.0013674 0)
(-0.00406564 0.00151885 0)
(-0.00495571 0.00165447 0)
(-0.00591225 0.00177348 0)
(-0.00692665 0.00187548 0)
(-0.00799007 0.0019603 0)
(-0.00909354 0.00202802 0)
(-0.0102281 0.00207883 0)
(-0.0113849 0.00211308 0)
(-0.0125552 0.00213118 0)
(-0.0137303 0.00213363 0)
(-0.0149022 0.00212099 0)
(-0.0160626 0.00209384 0)
(-0.017204 0.00205281 0)
(-0.0183189 0.00199857 0)
(-0.0194004 0.0019318 0)
(-0.0204417 0.00185318 0)
(-0.0214365 0.00176344 0)
(-0.022379 0.00166328 0)
(-0.0232636 0.00155346 0)
(-0.0240853 0.00143471 0)
(-0.0248392 0.00130778 0)
(-0.0255212 0.00117344 0)
(-0.0261274 0.00103246 0)
(-0.0266543 0.000885619 0)
(-0.027099 0.000733717 0)
(-0.0274589 0.000577558 0)
(-0.0277319 0.000417961 0)
(-0.0279163 0.000255757 0)
(-0.028011 9.17911e-05 0)
(-0.0280152 -7.30769e-05 0)
(-0.0279288 -0.000237974 0)
(-0.0277519 -0.000402013 0)
(-0.0274854 -0.000564294 0)
(-0.0271304 -0.000723905 0)
(-0.0266888 -0.000879924 0)
(-0.0261628 -0.00103142 0)
(-0.025555 -0.00117745 0)
(-0.0248689 -0.00131707 0)
(-0.0241082 -0.00144935 0)
(-0.0232773 -0.00157334 0)
(-0.0223808 -0.00168811 0)
(-0.0214242 -0.00179274 0)
(-0.0204131 -0.00188633 0)
(-0.019354 -0.001968 0)
(-0.0182534 -0.00203691 0)
(-0.0171187 -0.00209224 0)
(-0.0159573 -0.00213323 0)
(-0.0147771 -0.00215917 0)
(-0.0135866 -0.00216939 0)
(-0.0123943 -0.00216334 0)
(-0.0112091 -0.00214051 0)
(-0.0100401 -0.00210051 0)
(-0.00889638 -0.00204306 0)
(-0.00778732 -0.00196801 0)
(-0.00672216 -0.00187538 0)
(-0.00571001 -0.00176537 0)
(-0.00475975 -0.00163843 0)
(-0.00387985 -0.00149528 0)
(-0.00307821 -0.00133704 0)
(-0.00236188 -0.00116532 0)
(-0.00173686 -0.000982359 0)
(-0.00120767 -0.000791315 0)
(-0.000776898 -0.000596555 0)
(-0.000444687 -0.000404156 0)
(-0.000207983 -0.000222583 0)
(-5.97892e-05 -6.36163e-05 0)
(1.18284e-05 5.65713e-05 0)
(2.60586e-05 0.000116056 0)
(1.08931e-05 8.37819e-05 0)
(4.00942e-06 -8.69445e-05 0)
(-1.30486e-05 -7.93177e-05 0)
(-9.20534e-05 5.02157e-05 0)
(-0.000254071 0.000259922 0)
(-0.000514927 0.00052042 0)
(-0.000885061 0.000809664 0)
(-0.00137004 0.00111127 0)
(-0.00197148 0.00141325 0)
(-0.00268781 0.0017069 0)
(-0.0035149 0.00198594 0)
(-0.00444666 0.00224588 0)
(-0.00547548 0.00248358 0)
(-0.00659262 0.00269688 0)
(-0.00778852 0.00288441 0)
(-0.00905306 0.00304534 0)
(-0.0103758 0.00317929 0)
(-0.0117459 0.00328623 0)
(-0.0131529 0.00336639 0)
(-0.0145859 0.0034202 0)
(-0.0160344 0.00344827 0)
(-0.0174882 0.00345131 0)
(-0.018937 0.00343017 0)
(-0.0203712 0.00338575 0)
(-0.0217814 0.00331903 0)
(-0.0231586 0.00323104 0)
(-0.024494 0.00312286 0)
(-0.0257797 0.00299558 0)
(-0.0270078 0.00285034 0)
(-0.0281711 0.00268829 0)
(-0.0292628 0.00251062 0)
(-0.0302767 0.00231853 0)
(-0.0312069 0.00211322 0)
(-0.0320482 0.00189593 0)
(-0.0327958 0.00166792 0)
(-0.0334456 0.00143045 0)
(-0.0339938 0.00118481 0)
(-0.0344373 0.000932305 0)
(-0.0347735 0.000674266 0)
(-0.0350004 0.000412041 0)
(-0.0351166 0.000147001 0)
(-0.0351213 -0.000119461 0)
(-0.035014 -0.000385932 0)
(-0.0347953 -0.000650975 0)
(-0.0344659 -0.000913136 0)
(-0.0340276 -0.00117094 0)
(-0.0334823 -0.0014229 0)
(-0.032833 -0.00166751 0)
(-0.032083 -0.00190327 0)
(-0.0312364 -0.00212865 0)
(-0.0302979 -0.00234215 0)
(-0.0292727 -0.00254226 0)
(-0.0281668 -0.00272748 0)
(-0.0269867 -0.00289636 0)
(-0.0257394 -0.00304744 0)
(-0.0244327 -0.00317935 0)
(-0.0230747 -0.00329072 0)
(-0.0216742 -0.00338029 0)
(-0.0202405 -0.00344686 0)
(-0.0187833 -0.0034893 0)
(-0.0173126 -0.00350662 0)
(-0.0158388 -0.00349792 0)
(-0.0143728 -0.00346248 0)
(-0.0129255 -0.00339973 0)
(-0.0115079 -0.00330927 0)
(-0.0101312 -0.00319096 0)
(-0.00880651 -0.00304493 0)
(-0.00754463 -0.0028716 0)
(-0.0063561 -0.00267181 0)
(-0.00525091 -0.00244685 0)
(-0.00423829 -0.00219865 0)
(-0.00332647 -0.00192988 0)
(-0.00252238 -0.00164421 0)
(-0.00183124 -0.00134661 0)
(-0.00125612 -0.0010438 0)
(-0.000797445 -0.000744806 0)
(-0.000452344 -0.000461776 0)
(-0.000213979 -0.000211008 0)
(-7.07102e-05 -1.40968e-05 0)
(-5.28367e-06 0.000100542 0)
(5.24939e-06 9.30454e-05 0)
(-2.67524e-06 -7.36396e-05 0)
(-5.09567e-05 -7.12375e-06 0)
(-0.000191923 0.000205734 0)
(-0.000438792 0.000516576 0)
(-0.000803663 0.000890479 0)
(-0.00129553 0.00130054 0)
(-0.00191888 0.00172619 0)
(-0.00267442 0.00215193 0)
(-0.00355983 0.00256618 0)
(-0.00457021 0.00296035 0)
(-0.00569862 0.00332812 0)
(-0.0069365 0.00366496 0)
(-0.008274 0.00396765 0)
(-0.00970037 0.00423406 0)
(-0.0112042 0.00446285 0)
(-0.0127735 0.00465332 0)
(-0.0143962 0.00480527 0)
(-0.0160601 0.00491891 0)
(-0.0177529 0.00499476 0)
(-0.0194624 0.00503357 0)
(-0.0211767 0.00503634 0)
(-0.0228843 0.00500417 0)
(-0.0245738 0.00493835 0)
(-0.0262343 0.00484024 0)
(-0.0278553 0.00471129 0)
(-0.0294268 0.00455302 0)
(-0.0309393 0.00436703 0)
(-0.0323838 0.00415492 0)
(-0.0337518 0.00391838 0)
(-0.0350354 0.00365911 0)
(-0.0362273 0.00337885 0)
(-0.0373206 0.00307936 0)
(-0.0383093 0.00276243 0)
(-0.0391877 0.0024299 0)
(-0.039951 0.00208361 0)
(-0.0405949 0.00172544 0)
(-0.0411156 0.00135731 0)
(-0.0415103 0.000981141 0)
(-0.0417764 0.000598915 0)
(-0.0419125 0.000212629 0)
(-0.0419174 -0.000175685 0)
(-0.0417909 -0.000563964 0)
(-0.0415334 -0.000950117 0)
(-0.041146 -0.00133202 0)
(-0.0406305 -0.00170754 0)
(-0.0399895 -0.00207451 0)
(-0.0392262 -0.00243074 0)
(-0.0383448 -0.00277404 0)
(-0.0373498 -0.00310223 0)
(-0.0362468 -0.00341311 0)
(-0.035042 -0.0037045 0)
(-0.0337422 -0.00397425 0)
(-0.0323551 -0.00422025 0)
(-0.0308889 -0.00444044 0)
(-0.0293526 -0.0046328 0)
(-0.0277557 -0.00479543 0)
(-0.0261085 -0.0049265 0)
(-0.0244215 -0.00502429 0)
(-0.0227061 -0.00508725 0)
(-0.0209739 -0.00511397 0)
(-0.019237 -0.00510322 0)
(-0.0175077 -0.005054 0)
(-0.0157988 -0.00496557 0)
(-0.0141229 -0.00483745 0)
(-0.0124927 -0.00466954 0)
(-0.0109209 -0.00446211 0)
(-0.00941998 -0.00421592 0)
(-0.00800176 -0.00393229 0)
(-0.00667756 -0.00361323 0)
(-0.00545783 -0.0032616 0)
(-0.00435184 -0.00288134 0)
(-0.00336742 -0.00247769 0)
(-0.00251057 -0.00205765 0)
(-0.00178504 -0.00163039 0)
(-0.00119191 -0.00120794 0)
(-0.000729048 -0.000806031 0)
(-0.000390532 -0.000445168 0)
(-0.000165937 -0.000151795 0)
(-4.13646e-05 4.01674e-05 0)
(-1.10608e-06 8.42011e-05 0)
(-9.451e-06 -3.99724e-05 0)
(-9.06057e-05 0.000116524 0)
(-0.000297607 0.000437837 0)
(-0.000634821 0.00087112 0)
(-0.00110975 0.00137713 0)
(-0.00172925 0.00192488 0)
(-0.00249612 0.00249013 0)
(-0.00340973 0.00305416 0)
(-0.0044666 0.00360263 0)
(-0.00566087 0.00412466 0)
(-0.00698462 0.00461207 0)
(-0.00842829 0.00505884 0)
(-0.00998102 0.00546063 0)
(-0.0116309 0.00581443 0)
(-0.0133654 0.00611831 0)
(-0.0151712 0.00637118 0)
(-0.0170351 0.00657264 0)
(-0.0189432 0.0067228 0)
(-0.0208822 0.00682225 0)
(-0.0228383 0.00687192 0)
(-0.0247983 0.00687302 0)
(-0.0267493 0.00682699 0)
(-0.0286784 0.00673549 0)
(-0.0305735 0.0066003 0)
(-0.0324228 0.00642335 0)
(-0.034215 0.00620666 0)
(-0.0359394 0.00595236 0)
(-0.0375857 0.00566261 0)
(-0.0391446 0.00533969 0)
(-0.0406069 0.00498588 0)
(-0.0419645 0.00460355 0)
(-0.0432097 0.00419509 0)
(-0.0443354 0.00376293 0)
(-0.0453355 0.00330957 0)
(-0.0462044 0.00283752 0)
(-0.0469372 0.00234933 0)
(-0.0475297 0.00184762 0)
(-0.0479787 0.00133502 0)
(-0.0482813 0.000814223 0)
(-0.0484359 0.000287949 0)
(-0.0484411 -0.000241033 0)
(-0.0482968 -0.000769916 0)
(-0.0480034 -0.00129585 0)
(-0.0475622 -0.00181597 0)
(-0.0469752 -0.00232734 0)
(-0.0462453 -0.00282704 0)
(-0.0453764 -0.0033121 0)
(-0.0443728 -0.00377956 0)
(-0.0432401 -0.00422644 0)
(-0.0419843 -0.00464979 0)
(-0.0406124 -0.00504666 0)
(-0.0391323 -0.00541416 0)
(-0.0375524 -0.00574944 0)
(-0.0358822 -0.00604972 0)
(-0.0341317 -0.00631231 0)
(-0.0323117 -0.00653465 0)
(-0.0304336 -0.0067143 0)
(-0.0285094 -0.006849 0)
(-0.0265517 -0.00693668 0)
(-0.0245736 -0.00697548 0)
(-0.0225886 -0.00696383 0)
(-0.0206106 -0.00690045 0)
(-0.0186537 -0.0067844 0)
(-0.0167319 -0.00661517 0)
(-0.0148596 -0.00639269 0)
(-0.0130507 -0.00611747 0)
(-0.0113189 -0.00579063 0)
(-0.00967756 -0.0054141 0)
(-0.00813908 -0.00499067 0)
(-0.00671502 -0.00452428 0)
(-0.00541569 -0.00402021 0)
(-0.00424987 -0.00348542 0)
(-0.00322446 -0.00292894 0)
(-0.00234415 -0.00236242 0)
(-0.00161101 -0.00180079 0)
(-0.00102414 -0.00126312 0)
(-0.00057912 -0.000773681 0)
(-0.000267425 -0.000363032 0)
(-7.93887e-05 -6.94741e-05 0)
(-7.59938e-06 5.58809e-05 0)
(-1.60567e-05 1.43143e-05 0)
(-0.000130432 0.000293445 0)
(-0.000405134 0.000749781 0)
(-0.000835405 0.00132773 0)
(-0.00142371 0.00198486 0)
(-0.00217432 0.00268696 0)
(-0.0030879 0.00340668 0)
(-0.00416206 0.00412243 0)
(-0.0053919 0.00481737 0)
(-0.00677032 0.00547843 0)
(-0.00828831 0.00609562 0)
(-0.00993523 0.00666143 0)
(-0.0116991 0.00717035 0)
(-0.0135671 0.00761848 0)
(-0.0155254 0.00800323 0)
(-0.0175596 0.00832308 0)
(-0.0196553 0.00857735 0)
(-0.0217975 0.00876607 0)
(-0.0239714 0.00888987 0)
(-0.0261623 0.00894981 0)
(-0.0283556 0.00894736 0)
(-0.0305371 0.00888429 0)
(-0.0326928 0.00876265 0)
(-0.0348093 0.00858468 0)
(-0.0368736 0.00835281 0)
(-0.0388735 0.00806962 0)
(-0.0407969 0.00773781 0)
(-0.0426329 0.00736017 0)
(-0.0443707 0.0069396 0)
(-0.0460006 0.00647907 0)
(-0.0475134 0.0059816 0)
(-0.0489007 0.00545031 0)
(-0.0501547 0.00488834 0)
(-0.0512686 0.00429891 0)
(-0.0522363 0.00368528 0)
(-0.0530522 0.00305079 0)
(-0.0537119 0.0023988 0)
(-0.0542117 0.00173274 0)
(-0.0545486 0.0010561 0)
(-0.0547206 0.000372419 0)
(-0.0547264 -0.000314723 0)
(-0.0545657 -0.00100168 0)
(-0.054239 -0.00168477 0)
(-0.0537477 -0.00236025 0)
(-0.0530943 -0.00302437 0)
(-0.0522817 -0.00367331 0)
(-0.0513143 -0.00430326 0)
(-0.0501969 -0.00491037 0)
(-0.0489355 -0.00549083 0)
(-0.047537 -0.0060408 0)
(-0.046009 -0.00655651 0)
(-0.0443601 -0.00703423 0)
(-0.0425998 -0.0074703 0)
(-0.0407383 -0.00786116 0)
(-0.0387867 -0.00820336 0)
(-0.0367569 -0.00849364 0)
(-0.0346613 -0.0087289 0)
(-0.0325132 -0.00890624 0)
(-0.0303265 -0.00902307 0)
(-0.0281155 -0.00907706 0)
(-0.0258949 -0.00906624 0)
(-0.0236799 -0.00898904 0)
(-0.0214859 -0.00884436 0)
(-0.0193284 -0.00863162 0)
(-0.0172228 -0.00835086 0)
(-0.0151845 -0.00800282 0)
(-0.0132284 -0.00758909 0)
(-0.011369 -0.0071122 0)
(-0.00961976 -0.00657584 0)
(-0.00799343 -0.00598506 0)
(-0.00650137 -0.00534654 0)
(-0.0051534 -0.00466896 0)
(-0.00395749 -0.00396338 0)
(-0.00291948 -0.00324385 0)
(-0.00204276 -0.00252799 0)
(-0.00132807 -0.00183787 0)
(-0.000772915 -0.00120101 0)
(-0.000371136 -0.000651325 0)
(-0.00011775 -0.000230407 0)
(-1.39544e-05 7.73088e-06 0)
(-2.23843e-05 8.89241e-05 0)
(-0.00016959 0.000523928 0)
(-0.000512118 0.00114272 0)
(-0.00103625 0.00188827 0)
(-0.00173929 0.00271597 0)
(-0.00262262 0.00358914 0)
(-0.00368451 0.00447787 0)
(-0.00492049 0.00535817 0)
(-0.00632399 0.00621094 0)
(-0.00788646 0.00702113 0)
(-0.00959761 0.00777705 0)
(-0.0114456 0.00846975 0)
(-0.0134175 0.00909257 0)
(-0.0154991 0.00964071 0)
(-0.0176757 0.0101109 0)
(-0.0199319 0.0105012 0)
(-0.0222519 0.0108106 0)
(-0.0246198 0.011039 0)
(-0.0270196 0.0111872 0)
(-0.0294355 0.0112562 0)
(-0.0318518 0.0112478 0)
(-0.0342531 0.0111642 0)
(-0.0366244 0.0110078 0)
(-0.0389512 0.0107812 0)
(-0.0412195 0.0104876 0)
(-0.043416 0.01013 0)
(-0.0455278 0.0097118 0)
(-0.0475428 0.00923642 0)
(-0.0494495 0.00870747 0)
(-0.0512374 0.00812862 0)
(-0.0528965 0.00750366 0)
(-0.0544177 0.00683646 0)
(-0.0557925 0.00613094 0)
(-0.0570136 0.00539113 0)
(-0.0580742 0.00462112 0)
(-0.0589685 0.00382505 0)
(-0.0596915 0.00300715 0)
(-0.0602393 0.00217171 0)
(-0.0606086 0.00132309 0)
(-0.0607973 0.00046571 0)
(-0.0608039 -0.000395938 0)
(-0.0606281 -0.0012573 0)
(-0.0602706 -0.00211378 0)
(-0.0597328 -0.00296071 0)
(-0.0590173 -0.00379338 0)
(-0.0581275 -0.00460705 0)
(-0.0570679 -0.00539695 0)
(-0.0558439 -0.00615832 0)
(-0.0544619 -0.00688637 0)
(-0.0529294 -0.00757636 0)
(-0.0512547 -0.00822358 0)
(-0.049447 -0.00882341 0)
(-0.0475167 -0.0093713 0)
(-0.0454747 -0.00986285 0)
(-0.0433331 -0.0102938 0)
(-0.0411046 -0.0106601 0)
(-0.0388029 -0.010958 0)
(-0.0364421 -0.0111839 0)
(-0.0340373 -0.0113345 0)
(-0.0316039 -0.0114072 0)
(-0.0291578 -0.0113995 0)
(-0.0267154 -0.0113095 0)
(-0.0242932 -0.011136 0)
(-0.0219079 -0.0108783 0)
(-0.0195762 -0.0105366 0)
(-0.0173146 -0.0101119 0)
(-0.0151391 -0.00960626 0)
(-0.0130654 -0.00902285 0)
(-0.0111081 -0.00836628 0)
(-0.0092811 -0.00764273 0)
(-0.00759683 -0.0068603 0)
(-0.0060663 -0.00602933 0)
(-0.00469872 -0.00516287 0)
(-0.00350129 -0.00427714 0)
(-0.002479 -0.00339225 0)
(-0.00163451 -0.0025329 0)
(-0.000967555 -0.00172932 0)
(-0.000474626 -0.00101807 0)
(-0.000155565 -0.000443092 0)
(-2.00509e-05 -6.00217e-05 0)
(-2.84005e-05 0.00018328 0)
(-0.000207657 0.000807348 0)
(-0.000617201 0.00161645 0)
(-0.00123474 0.00255304 0)
(-0.00205248 0.00357115 0)
(-0.00306882 0.00463228 0)
(-0.00427941 0.00570453 0)
(-0.0056775 0.0067619 0)
(-0.00725464 0.00778335 0)
(-0.00900066 0.00875208 0)
(-0.0109038 0.00965484 0)
(-0.0129511 0.0104814 0)
(-0.0151282 0.0112239 0)
(-0.01742 0.0118767 0)
(-0.0198105 0.012436 0)
(-0.0222832 0.0128993 0)
(-0.0248215 0.0132653 0)
(-0.0274083 0.0135339 0)
(-0.0300267 0.0137057 0)
(-0.0326596 0.013782 0)
(-0.0352904 0.013765 0)
(-0.0379027 0.0136569 0)
(-0.0404805 0.0134608 0)
(-0.0430084 0.0131799 0)
(-0.0454715 0.0128176 0)
(-0.0478553 0.0123779 0)
(-0.0501463 0.0118646 0)
(-0.0523315 0.011282 0)
(-0.0543988 0.0106343 0)
(-0.0563366 0.00992608 0)
(-0.0581344 0.00916186 0)
(-0.0597825 0.00834633 0)
(-0.0612718 0.00748427 0)
(-0.0625944 0.00658057 0)
(-0.0637431 0.00564018 0)
(-0.0647117 0.00466816 0)
(-0.0654949 0.00366964 0)
(-0.0660884 0.00264985 0)
(-0.0664887 0.00161407 0)
(-0.0666935 0.000567695 0)
(-0.0667014 -0.000483823 0)
(-0.066512 -0.00153495 0)
(-0.0661258 -0.00258009 0)
(-0.0655446 -0.00361359 0)
(-0.064771 -0.00462972 0)
(-0.0638087 -0.00562274 0)
(-0.0626625 -0.00658687 0)
(-0.0613382 -0.00751631 0)
(-0.0598427 -0.00840529 0)
(-0.0581838 -0.00924806 0)
(-0.0563704 -0.0100389 0)
(-0.0544125 -0.0107723 0)
(-0.052321 -0.0114427 0)
(-0.0501077 -0.0120448 0)
(-0.0477854 -0.0125735 0)
(-0.0453677 -0.0130239 0)
(-0.0428692 -0.0133914 0)
(-0.040305 -0.0136718 0)
(-0.0376911 -0.0138614 0)
(-0.0350439 -0.0139566 0)
(-0.0323805 -0.0139548 0)
(-0.0297183 -0.0138537 0)
(-0.0270749 -0.0136519 0)
(-0.0244681 -0.0133487 0)
(-0.0219158 -0.0129442 0)
(-0.0194355 -0.01244 0)
(-0.0170444 -0.0118383 0)
(-0.0147593 -0.0111432 0)
(-0.0125961 -0.0103601 0)
(-0.0105696 -0.00949637 0)
(-0.00869369 -0.00856137 0)
(-0.0069805 -0.00756708 0)
(-0.00544071 -0.00652839 0)
(-0.00408308 -0.00546354 0)
(-0.00291439 -0.00439484 0)
(-0.00193943 -0.00334923 0)
(-0.00116039 -0.00235919 0)
(-0.000576499 -0.00146328 0)
(-0.000192385 -0.000707051 0)
(-2.58489e-05 -0.000146854 0)
(-3.41088e-05 0.000296689 0)
(-0.000244455 0.00114258 0)
(-0.00071968 0.00216992 0)
(-0.0014294 0.0033213 0)
(-0.0023609 0.00454996 0)
(-0.00350958 0.00581617 0)
(-0.00486837 0.00708653 0)
(-0.00642813 0.00833338 0)
(-0.00817835 0.00953411 0)
(-0.0101071 0.0106704 0)
(-0.0122011 0.0117275 0)
(-0.0144459 0.0126942 0)
(-0.0168259 0.0135615 0)
(-0.0193249 0.014323 0)
(-0.0219257 0.0149742 0)
(-0.0246109 0.0155123 0)
(-0.0273626 0.0159357 0)
(-0.0301628 0.0162442 0)
(-0.0329935 0.0164384 0)
(-0.0358369 0.0165199 0)
(-0.0386753 0.016491 0)
(-0.0414914 0.0163544 0)
(-0.0442682 0.0161135 0)
(-0.0469896 0.0157722 0)
(-0.0496396 0.0153345 0)
(-0.0522031 0.0148049 0)
(-0.0546657 0.0141881 0)
(-0.0570138 0.0134889 0)
(-0.0592344 0.0127126 0)
(-0.0613154 0.0118643 0)
(-0.0632457 0.0109496 0)
(-0.0650148 0.00997386 0)
(-0.0666133 0.00894289 0)
(-0.0680327 0.00786246 0)
(-0.0692656 0.00673845 0)
(-0.0703051 0.00557686 0)
(-0.0711459 0.00438382 0)
(-0.0717832 0.00316551 0)
(-0.0722135 0.00192825 0)
(-0.0724342 0.000678426 0)
(-0.0724439 -0.000577476 0)
(-0.0722421 -0.00183288 0)
(-0.0718295 -0.00308114 0)
(-0.0712077 -0.00431553 0)
(-0.0703796 -0.00552927 0)
(-0.0693491 -0.00671553 0)
(-0.0681213 -0.00786745 0)
(-0.0667022 -0.00897817 0)
(-0.0650991 -0.0100408 0)
(-0.0633203 -0.0110487 0)
(-0.0613753 -0.0119949 0)
(-0.0592745 -0.0128729 0)
(-0.0570293 -0.0136762 0)
(-0.0546525 -0.0143985 0)
(-0.0521573 -0.0150338 0)
(-0.0495583 -0.0155763 0)
(-0.0468708 -0.0160207 0)
(-0.0441107 -0.016362 0)
(-0.041295 -0.0165957 0)
(-0.0384411 -0.0167178 0)
(-0.0355669 -0.0167252 0)
(-0.032691 -0.0166152 0)
(-0.0298319 -0.0163862 0)
(-0.0270085 -0.0160375 0)
(-0.0242398 -0.0155693 0)
(-0.0215443 -0.0149833 0)
(-0.0189405 -0.0142824 0)
(-0.0164462 -0.0134712 0)
(-0.0140786 -0.012556 0)
(-0.0118536 -0.0115452 0)
(-0.00978648 -0.0104495 0)
(-0.00789079 -0.00928231 0)
(-0.00617873 -0.00806027 0)
(-0.00466077 -0.00680343 0)
(-0.00334568 -0.00553598 0)
(-0.00224049 -0.00428681 0)
(-0.00134994 -0.00309016 0)
(-0.000676039 -0.00198614 0)
(-0.000228022 -0.00102129 0)
(-3.13486e-05 -0.000252119 0)
(-3.95303e-05 0.000428434 0)
(-0.00027995 0.00152824 0)
(-0.000819271 0.00280161 0)
(-0.00161952 0.00419163 0)
(-0.00266327 0.00565124 0)
(-0.00394301 0.00713988 0)
(-0.00544892 0.00862306 0)
(-0.00716937 0.0100719 0)
(-0.00909171 0.0114623 0)
(-0.0112021 0.0127749 0)
(-0.0134857 0.0139937 0)
(-0.0159264 0.0151062 0)
(-0.0185074 0.0161029 0)
(-0.021211 0.0169765 0)
(-0.0240192 0.0177221 0)
(-0.0269133 0.0183362 0)
(-0.0298745 0.0188173 0)
(-0.0328836 0.0191649 0)
(-0.0359219 0.0193798 0)
(-0.0389705 0.0194638 0)
(-0.0420108 0.0194195 0)
(-0.0450247 0.0192499 0)
(-0.0479944 0.0189591 0)
(-0.0509028 0.0185512 0)
(-0.0537334 0.0180312 0)
(-0.0564702 0.0174041 0)
(-0.0590982 0.0166753 0)
(-0.061603 0.0158506 0)
(-0.063971 0.0149359 0)
(-0.0661895 0.0139374 0)
(-0.0682469 0.0128612 0)
(-0.0701322 0.011714 0)
(-0.0718355 0.0105023 0)
(-0.073348 0.00923286 0)
(-0.0746616 0.0079126 0)
(-0.0757695 0.00654851 0)
(-0.0766658 0.00514772 0)
(-0.0773455 0.00371747 0)
(-0.0778051 0.00226512 0)
(-0.0780417 0.000798124 0)
(-0.0780538 -0.000675945 0)
(-0.0778409 -0.00214942 0)
(-0.0774038 -0.00361454 0)
(-0.076744 -0.00506347 0)
(-0.0758647 -0.0064883 0)
(-0.0747698 -0.00788107 0)
(-0.0734647 -0.0092338 0)
(-0.0719557 -0.0105385 0)
(-0.0702504 -0.0117872 0)
(-0.0683575 -0.0129719 0)
(-0.0662868 -0.0140848 0)
(-0.0640493 -0.0151183 0)
(-0.061657 -0.0160647 0)
(-0.0591231 -0.0169168 0)
(-0.0564617 -0.0176676 0)
(-0.0536878 -0.0183105 0)
(-0.0508176 -0.018839 0)
(-0.0478679 -0.0192476 0)
(-0.0448564 -0.019531 0)
(-0.0418013 -0.0196847 0)
(-0.0387216 -0.019705 0)
(-0.0356367 -0.0195888 0)
(-0.0325661 -0.0193344 0)
(-0.0295299 -0.0189408 0)
(-0.0265479 -0.0184085 0)
(-0.0236399 -0.0177392 0)
(-0.0208255 -0.0169364 0)
(-0.0181236 -0.0160052 0)
(-0.0155526 -0.0149528 0)
(-0.0131299 -0.0137885 0)
(-0.0108721 -0.0125242 0)
(-0.00879415 -0.0111748 0)
(-0.00691006 -0.00975838 0)
(-0.0052321 -0.00829657 0)
(-0.00377111 -0.00681523 0)
(-0.00253649 -0.00534487 0)
(-0.00153553 -0.00392117 0)
(-0.000772976 -0.00258536 0)
(-0.000262447 -0.00138459 0)
(-3.6571e-05 -0.00037514 0)
(-4.46942e-05 0.000577822 0)
(-0.000314196 0.00196291 0)
(-0.000915954 0.00350979 0)
(-0.00180487 0.0051623 0)
(-0.0029591 0.00687336 0)
(-0.00436826 0.00860198 0)
(-0.00601983 0.0103129 0)
(-0.00789967 0.0119762 0)
(-0.0099929 0.0135668 0)
(-0.0122837 0.0150643 0)
(-0.0147555 0.0164518 0)
(-0.0173906 0.0177159 0)
(-0.0201708 0.0188462 0)
(-0.0230771 0.0198349 0)
(-0.0260903 0.0206766 0)
(-0.0291905 0.0213676 0)
(-0.0323578 0.0219061 0)
(-0.0355724 0.0222917 0)
(-0.0388142 0.0225253 0)
(-0.0420636 0.0226088 0)
(-0.0453012 0.0225452 0)
(-0.0485081 0.022338 0)
(-0.0516656 0.0219918 0)
(-0.0547559 0.0215112 0)
(-0.0577618 0.020902 0)
(-0.0606667 0.0201697 0)
(-0.0634548 0.0193208 0)
(-0.0661111 0.0183617 0)
(-0.0686216 0.0172992 0)
(-0.070973 0.0161403 0)
(-0.0731532 0.0148922 0)
(-0.0751507 0.0135625 0)
(-0.0769552 0.0121587 0)
(-0.0785575 0.0106886 0)
(-0.0799493 0.00915997 0)
(-0.0811233 0.00758101 0)
(-0.0820735 0.00595986 0)
(-0.0827947 0.00430484 0)
(-0.083283 0.00262442 0)
(-0.0835357 0.000927168 0)
(-0.083551 -0.00077822 0)
(-0.0833284 -0.00248293 0)
(-0.0828686 -0.00417806 0)
(-0.0821734 -0.00585459 0)
(-0.0812458 -0.00750345 0)
(-0.08009 -0.00911551 0)
(-0.0787115 -0.0106816 0)
(-0.0771169 -0.0121925 0)
(-0.075314 -0.0136391 0)
(-0.0733119 -0.0150123 0)
(-0.0711207 -0.0163031 0)
(-0.0687519 -0.0175027 0)
(-0.066218 -0.0186024 0)
(-0.0635326 -0.0195939 0)
(-0.0607104 -0.0204691 0)
(-0.0577672 -0.0212204 0)
(-0.0547196 -0.0218407 0)
(-0.0515853 -0.0223233 0)
(-0.0483827 -0.0226623 0)
(-0.0451309 -0.0228526 0)
(-0.0418498 -0.0228899 0)
(-0.0385595 -0.0227707 0)
(-0.0352807 -0.022493 0)
(-0.0320344 -0.0220557 0)
(-0.0288414 -0.0214593 0)
(-0.0257228 -0.0207058 0)
(-0.0226992 -0.0197988 0)
(-0.0197907 -0.0187442 0)
(-0.0170171 -0.0175497 0)
(-0.0143973 -0.0162257 0)
(-0.011949 -0.0147852 0)
(-0.00968927 -0.0132443 0)
(-0.00763354 -0.0116223 0)
(-0.00579613 -0.00994235 0)
(-0.00419004 -0.00823174 0)
(-0.00282705 -0.00652229 0)
(-0.00171702 -0.00485085 0)
(-0.000867325 -0.00325947 0)
(-0.000295721 -0.00179565 0)
(-4.15465e-05 -0.000515269 0)
(-4.96331e-05 0.000744215 0)
(-0.000347293 0.00244517 0)
(-0.00100988 0.00429268 0)
(-0.00198559 0.00623142 0)
(-0.00324839 0.00821454 0)
(-0.00478519 0.0102008 0)
(-0.00658078 0.0121544 0)
(-0.00861853 0.0140449 0)
(-0.0108813 0.0158464 0)
(-0.0133512 0.0175374 0)
(-0.0160098 0.0191005 0)
(-0.018838 0.0205215 0)
(-0.0218158 0.0217895 0)
(-0.024923 0.0228961 0)
(-0.0281391 0.0238354 0)
(-0.0314431 0.0246038 0)
(-0.0348141 0.0251992 0)
(-0.0382311 0.0256213 0)
(-0.0416732 0.0258711 0)
(-0.04512 0.0259509 0)
(-0.0485512 0.0258639 0)
(-0.051947 0.0256143 0)
(-0.0552882 0.025207 0)
(-0.0585562 0.0246475 0)
(-0.061733 0.023942 0)
(-0.0648015 0.0230971 0)
(-0.0677454 0.0221198 0)
(-0.0705491 0.0210175 0)
(-0.073198 0.0197979 0)
(-0.0756785 0.0184689 0)
(-0.0779778 0.0170389 0)
(-0.0800842 0.0155161 0)
(-0.081987 0.0139091 0)
(-0.0836766 0.012227 0)
(-0.0851444 0.0104784 0)
(-0.0863829 0.00867272 0)
(-0.0873858 0.00681911 0)
(-0.0881478 0.00492705 0)
(-0.0886648 0.00300614 0)
(-0.0889338 0.00106609 0)
(-0.0889531 -0.000883231 0)
(-0.0887222 -0.00283182 0)
(-0.0882416 -0.00476958 0)
(-0.0875132 -0.00668629 0)
(-0.0865401 -0.00857166 0)
(-0.0853266 -0.0104153 0)
(-0.0838782 -0.0122069 0)
(-0.0822019 -0.013936 0)
(-0.0803056 -0.0155922 0)
(-0.0781986 -0.0171652 0)
(-0.0758915 -0.0186448 0)