/*--------------------------------*- C++ -*----------------------------------*\
  =========                 |
  \\      /  F ield         | OpenFOAM: The Open Source CFD Toolbox
   \\    /   O peration     | Website:  https://openfoam.org
    \\  /    A nd           | Version:  7
     \\/     M anipulation  |
\*---------------------------------------------------------------------------*/
FoamFile
{
    version     2.0;
    format      ascii;
    class       volScalarField;
    location    "0.25";
    object      p;
}
// * * * * * * * * * * * * * * * * * * * * * * * * * * * * * * * * * * * * * //

dimensions      [0 2 -2 0 0 0 0];

internalField   nonuniform List<scalar> 
1600
(
4.73696e-06
-0.00118273
-0.00391194
-0.00758443
-0.0115278
-0.0152465
-0.018383
-0.0206848
-0.0219846
-0.0221826
-0.0212332
-0.0191343
-0.0159196
-0.0116519
-0.00641845
-0.000327018
0.00649747
0.0139156
0.0217762
0.0299181
0.0381735
0.0463696
0.0543322
0.0618884
0.0688705
0.0751202
0.0804927
0.0848623
0.0881272
0.0902161
0.0910939
0.0907696
0.0893031
0.0868157
0.0835006
0.0796369
0.0756045
0.071912
0.0692273
0.0681118
0.00119642
6.13562e-06
-0.00220955
-0.00505973
-0.00810117
-0.0109687
-0.0133779
-0.0151158
-0.0160321
-0.0160309
-0.0150623
-0.0131147
-0.0102089
-0.00639315
-0.00173849
0.00366438
0.0097083
0.0162723
0.023224
0.0304222
0.0377188
0.044962
0.0519986
0.0586774
0.0648526
0.0703873
0.0751583
0.0790599
0.0820093
0.0839513
0.0848639
0.0847642
0.083714
0.0818262
0.0792715
0.0762838
0.073165
0.0702909
0.0681086
0.0669982
0.00394012
0.00221321
-3.2919e-05
-0.00259141
-0.00521916
-0.00764642
-0.00964968
-0.0110574
-0.0117438
-0.0116253
-0.0106558
-0.00882222
-0.00613983
-0.00264841
0.00159116
0.0064999
0.0119834
0.0179341
0.0242339
0.030756
0.0373674
0.0439315
0.0503106
0.0563689
0.0619757
0.0670091
0.0713597
0.0749346
0.0776621
0.0794956
0.0804186
0.0804488
0.0796425
0.0780986
0.0759611
0.073421
0.0707182
0.0681344
0.0659283
0.0643111
0.0077024
0.00509212
0.00245192
-0.000176211
-0.00273039
-0.00501077
-0.00684322
-0.00809604
-0.00867083
-0.00850082
-0.00754935
-0.00580704
-0.00328873
-3.06369e-05
0.00391226
0.00846861
0.0135528
0.0190673
0.0249042
0.0309475
0.0370756
0.0431629
0.0490826
0.0547099
0.0599242
0.0646133
0.0686763
0.0720275
0.0746003
0.0763513
0.0772636
0.0773503
0.076658
0.0752683
0.0732982
0.0708995
0.0682644
0.0656081
0.063018
0.0605501
0.0118894
0.00825096
0.00504338
0.00216369
-0.000493076
-0.00278305
-0.00457371
-0.00577046
-0.00630213
-0.00612039
-0.00520026
-0.00353881
-0.00115313
0.00192152
0.00563358
0.00991699
0.0146929
0.0198712
0.0253526
0.0310297
0.0367898
0.042516
0.0480903
0.0533957
0.0583193
0.0627551
0.0666076
0.0697951
0.072253
0.0739372
0.0748276
0.07493
0.074279
0.0729382
0.0709983
0.0685762
0.0658254
0.0629091
0.0597567
0.0562879
0.0160751
0.0113657
0.00749803
0.00424902
0.00136745
-0.00104569
-0.00289145
-0.0041079
-0.00464923
-0.00448539
-0.00360407
-0.00201026
0.000274814
0.00321487
0.00675977
0.0108467
0.0154016
0.02034
0.0255689
0.0309878
0.0364904
0.0419667
0.0473047
0.0523932
0.0571239
0.0613946
0.0651124
0.0681964
0.0705811
0.0722194
0.0730854
0.0731759
0.0725125
0.071141
0.0691287
0.0665625
0.063566
0.0602644
0.0564501
0.0519299
0.0199505
0.014175
0.0096008
0.00590652
0.00271547
9.72647e-05
-0.00187511
-0.00316745
-0.00375665
-0.00362988
-0.00278751
-0.00124328
0.000976234
0.00383225
0.00727438
0.0112414
0.0156621
0.020456
0.0255344
0.0308017
0.0361564
0.0414928
0.046703
0.051679
0.0563149
0.0605097
0.0641704
0.0672145
0.0695732
0.071194
0.0720431
0.0721075
0.0713952
0.0699357
0.0677754
0.0649766
0.0616418
0.0578705
0.0533387
0.0477628
0.0232826
0.0164653
0.0111667
0.00698355
0.00343044
0.000554448
-0.00159107
-0.00299514
-0.00365453
-0.00357218
-0.00276068
-0.00124275
0.000949005
0.00377222
0.00717504
0.0110964
0.0154666
0.0202073
0.0252329
0.0304506
0.0357619
0.041064
0.0462508
0.0512155
0.0558526
0.06006
0.0637422
0.066813
0.0691981
0.0708378
0.0716892
0.071728
0.0709493
0.069367
0.0670096
0.0639201
0.0601863
0.0558922
0.0506142
0.0439948
0.0258894
0.0180574
0.0120312
0.00733683
0.00339195
0.000227712
-0.00211729
-0.0036515
-0.00438904
-0.00434715
-0.00354995
-0.00202904
0.000176526
0.00302013
0.00644752
0.0103967
0.0147982
0.0195747
0.024642
0.0299091
0.0352789
0.0406494
0.0459152
0.0509687
0.0557027
0.0600123
0.0637977
0.0669667
0.0694378
0.0711423
0.0720269
0.0720556
0.07121
0.0694901
0.0669087
0.0634933
0.0593229
0.054473
0.0484325
0.0407813
0.0276205
0.0187956
0.0120447
0.00682934
0.0024785
-0.000988128
-0.00354312
-0.00521147
-0.00602258
-0.00600669
-0.00519877
-0.00363915
-0.00137351
0.00154679
0.0050644
0.0091156
0.01363
0.0185306
0.0237333
0.0291475
0.0346764
0.0402178
0.0456649
0.0509082
0.0558371
0.060342
0.0643171
0.0676625
0.0702877
0.0721134
0.0730748
0.0731229
0.0722263
0.0703711
0.0675567
0.0637978
0.0591687
0.0537418
0.0469261
0.0382453
0.0283431
0.0185384
0.0110666
0.00532797
0.000567639
-0.00320329
-0.00596614
-0.0077604
-0.0086293
-0.00861514
-0.00776322
-0.00612243
-0.00374522
-0.000688035
0.00298814
0.00721718
0.0119273
0.0170405
0.0224723
0.0281315
0.0339206
0.0397358
0.0454682
0.0510048
0.0562302
0.0610288
0.0652868
0.0688952
0.0717525
0.0737675
0.0748622
0.0749738
0.0740571
0.0720847
0.0690434
0.0649372
0.0598383
0.0538198
0.0462146
0.0364926
0.0279315
0.0171508
0.00896001
0.00270015
-0.00246574
-0.00653345
-0.00949155
-0.0113929
-0.0122937
-0.0122476
-0.0113102
-0.00953886
-0.00699289
-0.00373415
0.000172328
0.00465757
0.00964775
0.0150635
0.0208192
0.0268224
0.032974
0.0391681
0.0452924
0.0512296
0.0568584
0.0620554
0.0666977
0.0706653
0.0738441
0.0761292
0.0774277
0.0776617
0.076771
0.0747144
0.071466
0.0670201
0.0614487
0.0548275
0.0464137
0.0356245
0.0262604
0.0144976
0.00558712
-0.00118962
-0.00675163
-0.0111009
-0.0142326
-0.0162126
-0.0171097
-0.0169891
-0.0159165
-0.0139578
-0.0111797
-0.00764973
-0.00343715
0.00138579
0.00674292
0.0125531
0.0187291
0.0251771
0.0317959
0.0384766
0.0451033
0.0515533
0.0576984
0.0634064
0.0685438
0.0729779
0.0765804
0.0792304
0.0808183
0.0812493
0.0804465
0.0783535
0.0749311
0.0701637
0.0641236
0.0568906
0.0476439
0.035746
0.0231989
0.010439
0.000804749
-0.00648305
-0.0124272
-0.0170359
-0.0203112
-0.0223321
-0.0231804
-0.0229334
-0.0216671
-0.0194567
-0.0163764
-0.0124998
-0.00790067
-0.00265482
0.00315912
0.00945808
0.0161533
0.0231492
0.0303423
0.0376209
0.0448647
0.0519453
0.0587268
0.0650674
0.0708213
0.0758418
0.0799842
0.0831096
0.0850893
0.085809
0.0851728
0.083107
0.0795574
0.0744971
0.0679989
0.0601465
0.0500365
0.0369739
0.0186066
0.00482594
-0.00553937
-0.0133312
-0.0196392
-0.0244785
-0.0278588
-0.0298731
-0.0306175
-0.0301821
-0.0286543
-0.0261193
-0.0226593
-0.0183542
-0.013283
-0.00752481
-0.00116082
0.00572414
0.0130399
0.0206892
0.0285668
0.0365582
0.0445387
0.0523739
0.0599198
0.067024
0.0735278
0.0792683
0.0840825
0.0878113
0.0903038
0.091423
0.0910509
0.0890935
0.0854785
0.0801658
0.073227
0.0647496
0.0537404
0.039443
0.0123302
-0.00250333
-0.0136103
-0.0218976
-0.0285464
-0.03358
-0.037017
-0.0389665
-0.0395407
-0.0388437
-0.0369761
-0.0340338
-0.0301081
-0.0252858
-0.0196509
-0.0132863
-0.00627529
0.00129582
0.00933588
0.0177469
0.0264221
0.0352445
0.0440859
0.0528059
0.0612524
0.0692618
0.0766612
0.0832706
0.0889062
0.0933856
0.0965327
0.0981838
0.0981949
0.0964471
0.0928462
0.0873351
0.0799823
0.0708772
0.0589284
0.0433127
0.00419954
-0.0117274
-0.0235896
-0.0323619
-0.0393225
-0.044505
-0.0479392
-0.049753
-0.050077
-0.0490322
-0.0467339
-0.0432906
-0.0388034
-0.0333668
-0.0270702
-0.0199999
-0.012241
-0.00388067
0.00498996
0.0142729
0.023861
0.0336361
0.0434668
0.0532079
0.0626991
0.0717659
0.0802202
0.0878633
0.0944888
0.0998879
0.103855
0.106196
0.106734
0.10532
0.101834
0.0961956
0.0884666
0.0787361
0.0658033
0.0487724
-0.00597492
-0.0230457
-0.0356797
-0.0449233
-0.052159
-0.0574335
-0.0607912
-0.0623824
-0.0623601
-0.0608652
-0.0580305
-0.0539789
-0.0488229
-0.0426656
-0.0356018
-0.0277208
-0.0191092
-0.00985381
-4.45531e-05
0.010222
0.0208401
0.0316915
0.0426436
0.053547
0.0642347
0.0745212
0.0842034
0.0930624
0.100867
0.107379
0.112358
0.115574
0.116813
0.115887
0.112642
0.106968
0.0989151
0.0885688
0.0746052
0.0560489
-0.0184067
-0.0366832
-0.0501089
-0.0598054
-0.067269
-0.0725635
-0.0757525
-0.0770142
-0.0765287
-0.0744616
-0.0709662
-0.0661829
-0.0602373
-0.0532416
-0.0452965
-0.0364939
-0.0269208
-0.0166622
-0.00580516
0.00555721
0.0173223
0.0293746
0.0415818
0.0537929
0.0658352
0.0775135
0.0886099
0.0988846
0.10808
0.115923
0.122138
0.126448
0.128595
0.128345
0.125498
0.119907
0.111604
0.100662
0.0856195
0.0654138
-0.0333384
-0.0528971
-0.0671375
-0.0772618
-0.0848914
-0.0901136
-0.0930174
-0.0938163
-0.0927246
-0.0899378
-0.085635
-0.0799768
-0.0731042
-0.0651395
-0.0561893
-0.0463477
-0.0357003
-0.0243288
-0.0123149
0.000254172
0.013282
0.0266583
0.0402544
0.0539201
0.0674797
0.0807302
0.0934396
0.105348
0.116168
0.125592
0.133298
0.138961
0.142265
0.142921
0.140669
0.135314
0.126857
0.115355
0.0991869
0.0771927
-0.0510483
-0.0719848
-0.0870669
-0.0975832
-0.105297
-0.110327
-0.112796
-0.112965
-0.111089
-0.107404
-0.102118
-0.0954177
-0.087461
-0.0783817
-0.068292
-0.0572869
-0.0454491
-0.0328542
-0.0195761
-0.00569252
0.00870977
0.0235294
0.0386451
0.0539113
0.0691528
0.0841616
0.0986941
0.11247
0.125174
0.136458
0.145951
0.153269
0.158029
0.159869
0.15846
0.153538
0.14506
0.133054
0.115716
0.0917768
-0.0718602
-0.0942958
-0.11025
-0.121108
-0.128794
-0.133473
-0.135315
-0.13464
-0.13176
-0.126956
-0.120477
-0.112538
-0.103316
-0.0929594
-0.0815837
-0.0692838
-0.0561367
-0.0422091
-0.027563
-0.0122629
0.00361852
0.0199935
0.036753
0.0537607
0.0708467
0.0878026
0.104377
0.120271
0.135141
0.148598
0.160216
0.169542
0.176115
0.179483
0.179226
0.174989
0.16667
0.154245
0.135698
0.109637
-0.0961577
-0.120248
-0.137109
-0.148233
-0.15574
-0.159855
-0.160818
-0.159026
-0.154863
-0.14867
-0.140744
-0.131333
-0.12064
-0.108822
-0.0960014
-0.0822687
-0.0676922
-0.0523253
-0.036214
-0.0194043
-0.0019499
0.0160809
0.034597
0.0534778
0.0725647
0.0916545
0.110493
0.128768
0.14611
0.162087
0.176215
0.187962
0.196775
0.202093
0.203375
0.200153
0.192231
0.179515
0.159728
0.131343
-0.124404
-0.15035
-0.168154
-0.179433
-0.186549
-0.189814
-0.189565
-0.186302
-0.180504
-0.172588
-0.162907
-0.151751
-0.139347
-0.125865
-0.111428
-0.0961192
-0.0799939
-0.0630873
-0.0454235
-0.0270246
-0.00791855
0.011852
0.0322212
0.0530911
0.0743225
0.0957253
0.11705
0.137978
0.158117
0.176997
0.19407
0.208721
0.220283
0.228067
0.231381
0.229599
0.222398
0.209574
0.188536
0.15759
-0.15717
-0.185236
-0.204017
-0.215285
-0.221708
-0.223731
-0.221826
-0.216636
-0.208758
-0.198705
-0.1869
-0.173677
-0.15929
-0.143918
-0.127681
-0.11065
-0.0928606
-0.0743238
-0.055035
-0.0349853
-0.0141699
0.00740183
0.0296973
0.0526504
0.0761503
0.10003
0.124055
0.147911
0.171191
0.193389
0.213898
0.23201
0.246933
0.257818
0.263784
0.264
0.257962
0.245298
0.22302
0.189235
-0.195182
-0.225715
-0.245494
-0.256494
-0.261793
-0.262034
-0.257881
-0.250167
-0.239647
-0.226948
-0.212575
-0.196911
-0.180233
-0.162725
-0.144497
-0.125601
-0.106043
-0.085801
-0.0648353
-0.0430976
-0.0205425
0.00286258
0.0271274
0.0522273
0.0780916
0.104589
0.131512
0.158564
0.185336
0.211301
0.235793
0.258011
0.277024
0.291793
0.301204
0.304154
0.299881
0.287768
0.264305
0.227343
-0.239385
-0.272841
-0.293605
-0.30394
-0.307489
-0.305196
-0.298
-0.286988
-0.273115
-0.257149
-0.239683
-0.221148
-0.20184
-0.181937
-0.161527
-0.14063
-0.119216
-0.0972186
-0.0745524
-0.0511214
-0.0268309
-0.00159735
0.0246411
0.0519128
0.0801992
0.109419
0.139411
0.16991
0.200529
0.230731
0.259811
0.286876
0.310847
0.33047
0.344339
0.351001
0.34933
0.338341
0.313822
0.273269
-0.291046
-0.328023
-0.349684
-0.358724
-0.359607
-0.353728
-0.34242
-0.327108
-0.308995
-0.289011
-0.267841
-0.245957
-0.223655
-0.201093
-0.17832
-0.155311
-0.131981
-0.108211
-0.0838579
-0.0587689
-0.0327906
-0.00577907
0.02239
0.0518094
0.082527
0.114528
0.147717
0.181886
0.216691
0.251617
0.285939
0.318694
0.348655
0.374328
0.39396
0.405644
0.407751
0.398743
0.373422
0.328766
-0.351924
-0.393197
-0.415503
-0.422238
-0.419095
-0.408154
-0.391299
-0.370399
-0.346953
-0.322064
-0.296498
-0.270746
-0.245081
-0.219611
-0.194325
-0.169128
-0.143867
-0.118353
-0.0923767
-0.0657159
-0.0381499
-0.00946538
0.0205342
0.0520179
0.0851146
0.119895
0.156351
0.194361
0.233661
0.273793
0.314055
0.353444
0.390609
0.423809
0.450887
0.469363
0.476921
0.471196
0.445558
0.396168
-0.424542
-0.47108
-0.493443
-0.496238
-0.487038
-0.46896
-0.444647
-0.416521
-0.386419
-0.355604
-0.32489
-0.294743
-0.265368
-0.236785
-0.208889
-0.18149
-0.154345
-0.12718
-0.0997046
-0.0716199
-0.0426288
-0.0124404
0.0192228
0.0526172
0.0879668
0.125447
0.165162
0.207114
0.251158
0.296946
0.34386
0.39092
0.436702
0.479238
0.515933
0.54361
0.559027
0.558601
0.53356
0.478683
-0.512663
-0.565586
-0.586742
-0.582913
-0.56461
-0.536486
-0.50219
-0.464803
-0.426492
-0.388629
-0.352
-0.316968
-0.283604
-0.251788
-0.221275
-0.191748
-0.162851
-0.134208
-0.105435
-0.0761479
-0.0459666
-0.0145168
0.0185669
0.0536369
0.091025
0.13103
0.173896
0.219785
0.268724
0.320547
0.374801
0.430629
0.486629
0.54069
0.589792
0.629952
0.656732
0.664785
0.642065
0.58091
-0.62216
-0.682485
-0.699802
-0.684914
-0.652939
-0.610729
-0.563185
-0.514078
-0.46582
-0.419756
-0.376507
-0.336215
-0.298722
-0.263691
-0.230686
-0.199229
-0.168823
-0.138974
-0.109195
-0.0790121
-0.047957
-0.0155697
0.0186062
0.0550244
0.094134
0.136373
0.182152
0.231831
0.285672
0.343771
0.405956
0.471637
0.539609
0.607779
0.672822
0.729929
0.7732
0.794816
0.777704
0.709763
-0.762647
-0.830456
-0.838561
-0.805272
-0.752817
-0.691004
-0.626111
-0.562458
-0.50245
-0.447142
-0.396764
-0.351062
-0.309522
-0.2715
-0.236314
-0.203281
-0.171744
-0.141079
-0.110691
-0.0800108
-0.0484862
-0.0155728
0.0192751
0.0566126
0.0970101
0.141055
0.189346
0.242479
0.301012
0.365403
0.435902
0.512389
0.594114
0.67932
0.764678
0.844731
0.911992
0.955371
0.950196
0.87623
-0.950813
-1.02276
-1.01075
-0.946962
-0.864053
-0.77534
-0.688212
-0.607032
-0.53366
-0.468409
-0.410781
-0.359895
-0.314722
-0.274218
-0.237393
-0.203332
-0.171202
-0.140242
-0.10975
-0.0790697
-0.0475706
-0.0146323
0.020372
0.0580915
0.0992139
0.144477
0.194681
0.250687
0.313403
0.383749
0.462565
0.550456
0.647505
0.752804
0.863636
0.974486
1.07658
1.15497
1.17408
1.09893
-1.21717
-1.27971
-1.2255
-1.11154
-0.984067
-0.859368
-0.744751
-0.643426
-0.555739
-0.480568
-0.416237
-0.360956
-0.313024
-0.270909
-0.233273
-0.198952
-0.166937
-0.136339
-0.106362
-0.0762746
-0.0453843
-0.0130105
0.0215384
0.0589903
0.100135
0.145851
0.197131
0.255114
0.321097
0.396543
0.483049
0.582235
0.695506
0.823556
0.965367
1.11671
1.26884
1.40347
1.47114
1.41122
-1.61771
-1.63095
-1.49152
-1.29671
-1.10589
-0.935004
-0.788312
-0.665547
-0.563984
-0.480141
-0.410642
-0.352516
-0.303267
-0.260831
-0.223516
-0.189928
-0.158903
-0.129451
-0.100707
-0.0718893
-0.0422671
-0.0111236
0.0222728
0.0587023
0.0990291
0.144242
0.195503
0.254203
0.322027
0.401022
0.493658
0.602848
0.73186
0.883976
1.06155
1.26422
1.4865
1.71008
1.87239
1.87274
-2.25446
-2.11587
-1.81358
-1.49442
-1.21742
-0.990514
-0.809417
-0.666455
-0.553628
-0.464015
-0.39207
-0.333473
-0.284904
-0.243805
-0.208188
-0.176483
-0.147426
-0.11997
-0.0932192
-0.0663784
-0.0387084
-0.0094882
0.022022
0.0566193
0.0952014
0.13882
0.188749
0.246571
0.314293
0.394504
0.490568
0.606857
0.74899
0.923944
1.13978
1.40421
1.72094
2.07938
2.41784
2.5891
-3.35591
-2.78317
-2.1727
-1.67585
-1.29258
-1.00573
-0.79415
-0.637277
-0.519333
-0.429178
-0.358977
-0.303186
-0.257842
-0.220062
-0.187704
-0.159137
-0.133079
-0.108492
-0.0845038
-0.060346
-0.0353104
-0.00870753
0.0201721
0.0520986
0.0879503
0.128774
0.175865
0.230881
0.296003
0.374175
0.469458
0.587551
0.736532
0.927895
1.17797
1.50834
1.94099
2.49108
3.15795
3.79444
-5.52066
-3.66081
-2.43094
-1.71417
-1.24179
-0.921816
-0.704871
-0.553974
-0.445498
-0.365215
-0.304194
-0.256577
-0.218409
-0.186926
-0.160133
-0.136539
-0.11499
-0.094559
-0.0744719
-0.0540503
-0.0326695
-0.00972155
0.0154196
0.0434354
0.0751071
0.111372
0.153403
0.202722
0.261373
0.332198
0.419279
0.528678
0.669682
0.857074
1.11541
1.48391
2.01597
2.8054
4.12342
6.0914
-9.20662
-4.51956
-2.30622
-1.42119
-0.958943
-0.68291
-0.512257
-0.400588
-0.322922
-0.266424
-0.223901
-0.190922
-0.164579
-0.142863
-0.124317
-0.107844
-0.0925838
-0.0778385
-0.0630179
-0.0476009
-0.0311046
-0.0130581
0.00702362
0.0296661
0.0554681
0.0851424
0.119573
0.159899
0.207639
0.264905
0.334757
0.42186
0.533762
0.683749
0.897451
1.22411
1.75391
2.73325
5.06141
9.86893
)
;

boundaryField
{
    movingWall
    {
        type            zeroGradient;
    }
    fixedWalls
    {
        type            zeroGradient;
    }
    frontAndBack
    {
        type            empty;
    }
}


// ************************************************************************* //
