/*--------------------------------*- C++ -*----------------------------------*\
  =========                 |
  \\      /  F ield         | OpenFOAM: The Open Source CFD Toolbox
   \\    /   O peration     | Website:  https://openfoam.org
    \\  /    A nd           | Version:  7
     \\/     M anipulation  |
\*---------------------------------------------------------------------------*/
FoamFile
{
    version     2.0;
    format      ascii;
    class       surfaceScalarField;
    location    "0.4";
    object      phi;
}
// * * * * * * * * * * * * * * * * * * * * * * * * * * * * * * * * * * * * * //

dimensions      [0 3 -1 0 0 0 0];

internalField   nonuniform List<scalar> 
12640
(
1.88916e-10
-1.92181e-10
5.55562e-10
-3.66636e-10
8.8304e-10
-3.27417e-10
1.04614e-09
-1.63107e-10
9.8277e-10
6.33321e-11
6.65917e-10
3.16875e-10
8.86841e-11
5.77286e-10
-7.4387e-10
8.32576e-10
-1.81955e-09
1.07565e-09
-3.12187e-09
1.30227e-09
-4.6318e-09
1.50991e-09
-6.32888e-09
1.69709e-09
-8.19189e-09
1.86303e-09
-1.01993e-08
2.00743e-09
-1.23296e-08
2.1303e-09
-1.45615e-08
2.23189e-09
-1.68741e-08
2.31262e-09
-1.92472e-08
2.37302e-09
-2.16609e-08
2.4137e-09
-2.40962e-08
2.43533e-09
-2.65348e-08
2.43864e-09
-2.89592e-08
2.42439e-09
-3.13526e-08
2.39337e-09
-3.3699e-08
2.34638e-09
-3.59832e-08
2.28424e-09
-3.8191e-08
2.20777e-09
-4.03088e-08
2.11781e-09
-4.2324e-08
2.01519e-09
-4.42247e-08
1.90076e-09
-4.60001e-08
1.77535e-09
-4.76399e-08
1.63982e-09
-4.91349e-08
1.49502e-09
-5.04767e-08
1.34181e-09
-5.16577e-08
1.18106e-09
-5.26714e-08
1.01365e-09
-5.35119e-08
8.40466e-10
-5.41743e-08
6.6241e-10
-5.46547e-08
4.80396e-10
-5.495e-08
2.95356e-10
-5.50582e-08
1.08238e-10
-5.49782e-08
-7.99953e-11
-5.47099e-08
-2.68361e-10
-5.4254e-08
-4.5586e-10
-5.36126e-08
-6.41472e-10
-5.27884e-08
-8.24161e-10
-5.17855e-08
-1.00287e-09
-5.0609e-08
-1.17655e-09
-4.92649e-08
-1.3441e-09
-4.77604e-08
-1.50445e-09
-4.6104e-08
-1.6565e-09
-4.43048e-08
-1.79916e-09
-4.23735e-08
-1.93134e-09
-4.03215e-08
-2.05195e-09
-3.81616e-08
-2.15993e-09
-3.59074e-08
-2.25424e-09
-3.35735e-08
-2.33383e-09
-3.11758e-08
-2.39773e-09
-2.87308e-08
-2.44499e-09
-2.62561e-08
-2.47471e-09
-2.377e-08
-2.48606e-09
-2.12918e-08
-2.47827e-09
-1.88411e-08
-2.45065e-09
-1.64386e-08
-2.40256e-09
-1.4105e-08
-2.33353e-09
-1.18618e-08
-2.24318e-09
-9.7305e-09
-2.13128e-09
-7.73271e-09
-1.99778e-09
-5.88995e-09
-1.84279e-09
-4.22326e-09
-1.66672e-09
-2.75292e-09
-1.47034e-09
-1.49793e-09
-1.25494e-09
-4.75356e-10
-1.02252e-09
3.00806e-10
-7.76144e-10
8.21333e-10
-5.20559e-10
1.08461e-09
-2.63318e-10
1.10142e-09
-1.67926e-11
9.02834e-10
1.98639e-10
5.54601e-10
3.48256e-10
1.83943e-10
3.70646e-10
1.83984e-10
3.65427e-10
-5.57589e-10
8.86396e-10
-8.87511e-10
1.21751e-09
-6.58536e-10
1.13569e-09
-8.13451e-11
5.03293e-10
6.95659e-10
-7.53485e-10
1.57363e-09
-2.66384e-09
2.48765e-09
-5.22673e-09
3.39548e-09
-8.42075e-09
4.26967e-09
-1.22108e-08
5.09234e-09
-1.65528e-08
5.85194e-09
-2.13969e-08
6.54112e-09
-2.66892e-08
7.15542e-09
-3.23742e-08
7.69242e-09
-3.83951e-08
8.15118e-09
-4.4695e-08
8.53178e-09
-5.12175e-08
8.83511e-09
-5.79071e-08
9.0626e-09
-6.47096e-08
9.21615e-09
-7.15722e-08
9.29798e-09
-7.84441e-08
9.31055e-09
-8.52763e-08
9.25653e-09
-9.20216e-08
9.13871e-09
-9.86353e-08
8.96003e-09
-1.05075e-07
8.72347e-09
-1.11299e-07
8.4321e-09
-1.1727e-07
8.08904e-09
-1.22952e-07
7.69745e-09
-1.28312e-07
7.26051e-09
-1.33318e-07
6.78145e-09
-1.37942e-07
6.26351e-09
-1.42157e-07
5.70998e-09
-1.45939e-07
5.12417e-09
-1.49268e-07
4.50943e-09
-1.52123e-07
3.86916e-09
-1.54489e-07
3.20679e-09
-1.56353e-07
2.5258e-09
-1.57702e-07
1.82974e-09
-1.58529e-07
1.12221e-09
-1.58828e-07
4.06851e-10
-1.58595e-07
-3.12601e-10
-1.57831e-07
-1.03236e-09
-1.56538e-07
-1.74858e-09
-1.54722e-07
-2.45733e-09
-1.52392e-07
-3.15466e-09
-1.49558e-07
-3.83652e-09
-1.46236e-07
-4.49885e-09
-1.42442e-07
-5.13754e-09
-1.38199e-07
-5.74844e-09
-1.33528e-07
-6.32741e-09
-1.28456e-07
-6.87031e-09
-1.23015e-07
-7.37301e-09
-1.17235e-07
-7.83144e-09
-1.11154e-07
-8.24157e-09
-1.04808e-07
-8.5995e-09
-9.82408e-08
-8.90142e-09
-9.14949e-08
-9.14366e-09
-8.46171e-08
-9.32274e-09
-7.76565e-08
-9.43539e-09
-7.06639e-08
-9.47857e-09
-6.36926e-08
-9.44957e-09
-5.67973e-08
-9.34598e-09
-5.0034e-08
-9.16579e-09
-4.34602e-08
-8.90742e-09
-3.71335e-08
-8.56984e-09
-3.11121e-08
-8.15265e-09
-2.54536e-08
-7.65622e-09
-2.02145e-08
-7.08185e-09
-1.54492e-08
-6.43203e-09
-1.12088e-08
-5.7108e-09
-7.53946e-09
-4.9243e-09
-4.4804e-09
-4.08161e-09
-2.06049e-09
-3.19603e-09
-2.93959e-10
-2.28704e-09
8.2616e-10
-1.38342e-09
1.33754e-09
-5.2821e-10
1.32228e-09
2.13877e-10
9.24695e-10
7.45835e-10
3.7067e-10
9.24588e-10
5.54607e-10
3.30143e-10
-8.87675e-10
6.66259e-10
-1.22364e-09
6.13469e-10
-6.0581e-10
-8.92457e-11
6.21362e-10
-1.6128e-09
2.21923e-09
-4.05645e-09
4.01729e-09
-7.46461e-09
5.89582e-09
-1.18413e-08
7.77215e-09
-1.71611e-08
9.58948e-09
-2.33777e-08
1.13089e-08
-3.04297e-08
1.29039e-08
-3.82455e-08
1.4357e-08
-4.67466e-08
1.56566e-08
-5.58502e-08
1.6796e-08
-6.54708e-08
1.77717e-08
-7.55217e-08
1.85827e-08
-8.59166e-08
1.92299e-08
-9.65696e-08
1.97156e-08
-1.07397e-07
2.00432e-08
-1.18315e-07
2.02168e-08
-1.29246e-07
2.02414e-08
-1.40112e-07
2.01222e-08
-1.50838e-07
1.98652e-08
-1.61355e-07
1.94764e-08
-1.71593e-07
1.8962e-08
-1.8149e-07
1.83286e-08
-1.90984e-07
1.75828e-08
-2.00018e-07
1.67315e-08
-2.08539e-07
1.57814e-08
-2.16497e-07
1.47396e-08
-2.23846e-07
1.36132e-08
-2.30546e-07
1.24092e-08
-2.36556e-07
1.11349e-08
-2.41844e-07
9.79758e-09
-2.4638e-07
8.40474e-09
-2.50137e-07
6.96385e-09
-2.53094e-07
5.48254e-09
-2.55233e-07
3.96857e-09
-2.5654e-07
2.42981e-09
-2.57008e-07
8.74265e-10
-2.5663e-07
-6.89929e-10
-2.55408e-07
-2.2545e-09
-2.53346e-07
-3.81104e-09
-2.50452e-07
-5.35101e-09
-2.46741e-07
-6.86578e-09
-2.42231e-07
-8.34656e-09
-2.36945e-07
-9.78453e-09
-2.30912e-07
-1.11708e-08
-2.24164e-07
-1.24963e-08
-2.16739e-07
-1.37522e-08
-2.0868e-07
-1.49295e-08
-2.00034e-07
-1.60194e-08
-1.90852e-07
-1.7013e-08
-1.81192e-07
-1.79018e-08
-1.71114e-07
-1.86774e-08
-1.60684e-07
-1.93317e-08
-1.49971e-07
-1.98569e-08
-1.39048e-07
-2.02457e-08
-1.27992e-07
-2.04913e-08
-1.16883e-07
-2.05873e-08
-1.05804e-07
-2.05281e-08
-9.48414e-08
-2.0309e-08
-8.40811e-08
-1.99261e-08
-7.36121e-08
-1.93764e-08
-6.35236e-08
-1.86584e-08
-5.39043e-08
-1.77719e-08
-4.48418e-08
-1.67187e-08
-3.64211e-08
-1.55025e-08
-2.87231e-08
-1.413e-08
-2.18225e-08
-1.26114e-08
-1.57855e-08
-1.09613e-08
-1.06662e-08
-9.20088e-09
-6.50234e-09
-7.35992e-09
-3.30909e-09
-5.48028e-09
-1.07139e-09
-3.62109e-09
2.66642e-10
-1.8662e-09
8.15267e-10
-3.34663e-10
7.54536e-10
8.06675e-10
3.51055e-10
1.32812e-09
9.05633e-10
1.71793e-10
-1.05948e-09
1.04681e-10
-1.15657e-09
-5.88015e-10
8.68736e-11
-2.17028e-09
2.20364e-09
-4.81926e-09
4.86823e-09
-8.64135e-09
7.83938e-09
-1.3686e-08
1.09404e-08
-1.9958e-08
1.40441e-08
-2.74281e-08
1.70596e-08
-3.60411e-08
1.99219e-08
-4.57227e-08
2.25856e-08
-5.63846e-08
2.50189e-08
-6.79287e-08
2.72007e-08
-8.02501e-08
2.91174e-08
-9.32398e-08
3.07614e-08
-1.06786e-07
3.21293e-08
-1.20778e-07
3.32214e-08
-1.35103e-07
3.40404e-08
-1.4965e-07
3.4591e-08
-1.64313e-07
3.48797e-08
-1.78986e-07
3.49142e-08
-1.93567e-07
3.4703e-08
-2.07957e-07
3.42556e-08
-2.22063e-07
3.35821e-08
-2.35794e-07
3.2693e-08
-2.49065e-07
3.15992e-08
-2.61794e-07
3.03121e-08
-2.73905e-07
2.88431e-08
-2.85328e-07
2.72039e-08
-2.95995e-07
2.54067e-08
-3.05845e-07
2.34634e-08
-3.14822e-07
2.13864e-08
-3.22876e-07
1.91882e-08
-3.2996e-07
1.68814e-08
-3.36034e-07
1.44789e-08
-3.41064e-07
1.19937e-08
-3.4502e-07
9.43892e-09
-3.47879e-07
6.82806e-09
-3.49624e-07
4.17474e-09
-3.50243e-07
1.4928e-09
-3.49729e-07
-1.20368e-09
-3.48083e-07
-3.90039e-09
-3.45311e-07
-6.58282e-09
-3.41426e-07
-9.23625e-09
-3.36446e-07
-1.18458e-08
-3.30397e-07
-1.43963e-08
-3.23309e-07
-1.68726e-08
-3.1522e-07
-1.92593e-08
-3.06175e-07
-2.15412e-08
-2.96224e-07
-2.37029e-08
-2.85425e-07
-2.5729e-08
-2.7384e-07
-2.76044e-08
-2.61539e-07
-2.93143e-08
-2.48597e-07
-3.08439e-08
-2.35095e-07
-3.21791e-08
-2.2112e-07
-3.33062e-08
-2.06765e-07
-3.4212e-08
-1.92127e-07
-3.48843e-08
-1.77306e-07
-3.53117e-08
-1.6241e-07
-3.54839e-08
-1.47546e-07
-3.53916e-08
-1.32828e-07
-3.50272e-08
-1.1837e-07
-3.43846e-08
-1.04286e-07
-3.34598e-08
-9.06937e-08
-3.22508e-08
-7.77072e-08
-3.07584e-08
-6.54392e-08
-2.89868e-08
-5.39979e-08
-2.69437e-08
-4.34859e-08
-2.46421e-08
-3.39965e-08
-2.21007e-08
-2.56114e-08
-1.93463e-08
-1.83963e-08
-1.6416e-08
-1.23957e-08
-1.33605e-08
-7.6268e-09
-1.02492e-08
-4.07132e-09
-7.17659e-09
-1.66614e-09
-4.27146e-09
-2.91438e-10
-1.70944e-09
2.42059e-10
2.73223e-10
2.07901e-10
1.36232e-09
1.11355e-09
-4.74335e-11
-1.01207e-09
-6.54363e-10
-5.49719e-10
-2.15849e-09
1.59102e-09
-4.80031e-09
4.84547e-09
-8.74396e-09
8.81191e-09
-1.40888e-08
1.31843e-08
-2.08799e-08
1.77314e-08
-2.91173e-08
2.22816e-08
-3.87655e-08
2.67078e-08
-4.97608e-08
3.09172e-08
-6.20173e-08
3.48421e-08
-7.54328e-08
3.84344e-08
-8.9893e-08
4.16608e-08
-1.05275e-07
4.44991e-08
-1.21449e-07
4.69359e-08
-1.38284e-07
4.89644e-08
-1.55646e-07
5.05831e-08
-1.73401e-07
5.17949e-08
-1.91415e-07
5.26057e-08
-2.0956e-07
5.3024e-08
-2.27706e-07
5.30604e-08
-2.4573e-07
5.27273e-08
-2.63513e-07
5.20382e-08
-2.80938e-07
5.10078e-08
-2.97897e-07
4.96516e-08
-3.14284e-07
4.79859e-08
-3.29999e-07
4.60275e-08
-3.44949e-07
4.37935e-08
-3.59047e-07
4.13018e-08
-3.72211e-07
3.85702e-08
-3.84365e-07
3.56173e-08
-3.9544e-07
3.24615e-08
-4.05373e-07
2.91219e-08
-4.1411e-07
2.56176e-08
-4.21599e-07
2.19682e-08
-4.27799e-07
1.81935e-08
-4.32673e-07
1.43135e-08
-4.36194e-07
1.03488e-08
-4.38339e-07
6.31999e-09
-4.39095e-07
2.2482e-09
-4.38453e-07
-1.84516e-09
-4.36415e-07
-5.93836e-09
-4.32989e-07
-1.00094e-08
-4.28189e-07
-1.40358e-08
-4.2204e-07
-1.79951e-08
-4.14572e-07
-2.18643e-08
-4.05824e-07
-2.56205e-08
-3.95843e-07
-2.92406e-08
-3.84683e-07
-3.27013e-08
-3.72406e-07
-3.59795e-08
-3.59083e-07
-3.90521e-08
-3.44791e-07
-4.18964e-08
-3.29615e-07
-4.449e-08
-3.13648e-07
-4.68111e-08
-2.96989e-07
-4.88382e-08
-2.79744e-07
-5.05512e-08
-2.62025e-07
-5.19304e-08
-2.43952e-07
-5.29579e-08
-2.25647e-07
-5.36167e-08
-2.07239e-07
-5.38919e-08
-1.8886e-07
-5.37702e-08
-1.70647e-07
-5.32408e-08
-1.52736e-07
-5.22953e-08
-1.35267e-07
-5.09286e-08
-1.18379e-07
-4.9139e-08
-1.02208e-07
-4.69289e-08
-8.68892e-08
-4.43058e-08
-7.25498e-08
-4.12832e-08
-5.93103e-08
-3.78817e-08
-4.72798e-08
-3.41312e-08
-3.65531e-08
-3.0073e-08
-2.7206e-08
-2.5763e-08
-1.92907e-08
-2.12759e-08
-1.28287e-08
-1.67111e-08
-7.80484e-09
-1.22004e-08
-4.1583e-09
-7.91793e-09
-1.77386e-09
-4.09393e-09
-4.71909e-10
-1.02871e-09
2.14667e-12
8.88263e-10
1.11571e-09
-2.94263e-10
-7.17793e-10
-1.51839e-09
6.74366e-10
-3.94095e-09
4.01358e-09
-7.76113e-09
8.66565e-09
-1.31161e-08
1.41669e-08
-2.00874e-08
2.01555e-08
-2.8707e-08
2.6351e-08
-3.89651e-08
3.25396e-08
-5.08165e-08
3.85592e-08
-6.41872e-08
4.42879e-08
-7.89803e-08
4.96352e-08
-9.50807e-08
5.45348e-08
-1.1236e-07
5.89398e-08
-1.30678e-07
6.28178e-08
-1.49891e-07
6.61484e-08
-1.69847e-07
6.89206e-08
-1.90394e-07
7.11303e-08
-2.11379e-07
7.27799e-08
-2.3265e-07
7.38761e-08
-2.54055e-07
7.44295e-08
-2.75449e-07
7.44538e-08
-2.96686e-07
7.39651e-08
-3.1763e-07
7.29817e-08
-3.38145e-07
7.15232e-08
-3.58105e-07
6.96108e-08
-3.77385e-07
6.72668e-08
-3.95872e-07
6.45141e-08
-4.13455e-07
6.13767e-08
-4.30032e-07
5.78791e-08
-4.45508e-07
5.40463e-08
-4.59795e-07
4.99039e-08
-4.72811e-07
4.54779e-08
-4.84484e-07
4.07949e-08
-4.94748e-07
3.58816e-08
-5.03546e-07
3.07656e-08
-5.10827e-07
2.54744e-08
-5.16549e-07
2.00363e-08
-5.20681e-07
1.448e-08
-5.23195e-07
8.83449e-09
-5.24076e-07
3.12939e-09
-5.23316e-07
-2.60532e-09
-5.20915e-07
-8.3392e-09
-5.16883e-07
-1.40414e-08
-5.11238e-07
-1.96806e-08
-5.04008e-07
-2.52253e-08
-4.95229e-07
-3.06434e-08
-4.84947e-07
-3.5903e-08
-4.73215e-07
-4.09718e-08
-4.60099e-07
-4.58173e-08
-4.45671e-07
-5.04076e-08
-4.30013e-07
-5.47104e-08
-4.13215e-07
-5.86944e-08
-3.95377e-07
-6.23284e-08
-3.76605e-07
-6.55822e-08
-3.57017e-07
-6.84265e-08
-3.36735e-07
-7.08332e-08
-3.1589e-07
-7.27756e-08
-2.94619e-07
-7.42291e-08
-2.73065e-07
-7.51707e-08
-2.51377e-07
-7.55801e-08
-2.29707e-07
-7.54399e-08
-2.08212e-07
-7.47357e-08
-1.8705e-07
-7.3457e-08
-1.66381e-07
-7.15977e-08
-1.46364e-07
-6.91566e-08
-1.27154e-07
-6.61387e-08
-1.08904e-07
-6.25558e-08
-9.17591e-08
-5.84279e-08
-7.58554e-08
-5.37854e-08
-6.1316e-08
-4.86706e-08
-4.82478e-08
-4.31412e-08
-3.67373e-08
-3.72735e-08
-2.68455e-08
-3.11677e-08
-1.86026e-08
-2.49541e-08
-1.20017e-08
-1.88013e-08
-6.9928e-09
-1.29268e-08
-3.47607e-09
-7.61066e-09
-1.29541e-09
-3.20935e-09
-2.32866e-10
-1.74282e-10
8.82868e-10
-5.50571e-10
-1.67175e-10
-2.4298e-09
2.5536e-09
-5.83074e-09
7.41453e-09
-1.09014e-08
1.37362e-08
-1.77426e-08
2.10081e-08
-2.64095e-08
2.88224e-08
-3.69149e-08
3.68564e-08
-4.92334e-08
4.48582e-08
-6.33067e-08
5.26326e-08
-7.90487e-08
6.00299e-08
-9.63501e-08
6.69366e-08
-1.15083e-07
7.32678e-08
-1.35105e-07
7.89621e-08
-1.56264e-07
8.39763e-08
-1.78398e-07
8.82821e-08
-2.0134e-07
9.18631e-08
-2.24923e-07
9.47126e-08
-2.48974e-07
9.68317e-08
-2.73326e-07
9.82277e-08
-2.9781e-07
9.89132e-08
-3.22261e-07
9.89049e-08
-3.46518e-07
9.8223e-08
-3.70427e-07
9.68906e-08
-3.93837e-07
9.49328e-08
-4.16603e-07
9.23771e-08
-4.38588e-07
8.9252e-08
-4.59662e-07
8.55877e-08
-4.79701e-07
8.14154e-08
-4.98589e-07
7.67672e-08
-5.16219e-07
7.16762e-08
-5.32491e-07
6.61758e-08
-5.47314e-07
6.03007e-08
-5.60604e-07
5.40856e-08
-5.72289e-07
4.75663e-08
-5.82302e-07
4.07789e-08
-5.90588e-07
3.37601e-08
-5.97099e-07
2.65475e-08
-6.01798e-07
1.91788e-08
-6.04656e-07
1.16927e-08
-6.05655e-07
4.12827e-09
-6.04786e-07
-3.47467e-09
-6.02049e-07
-1.10758e-08
-5.97456e-07
-1.86344e-08
-5.91027e-07
-2.61091e-08
-5.82795e-07
-3.3458e-08
-5.72799e-07
-4.0639e-08
-5.61092e-07
-4.76098e-08
-5.47736e-07
-5.43279e-08
-5.32803e-07
-6.07506e-08
-5.16375e-07
-6.68356e-08
-4.98545e-07
-7.25409e-08
-4.79414e-07
-7.78251e-08
-4.59095e-07
-8.26473e-08
-4.37709e-07
-8.69681e-08
-4.15386e-07
-9.07492e-08
-3.92266e-07
-9.39539e-08
-3.68494e-07
-9.65477e-08
-3.44224e-07
-9.84985e-08
-3.19618e-07
-9.97768e-08
-2.94842e-07
-1.00357e-07
-2.70065e-07
-1.00216e-07
-2.45464e-07
-9.93368e-08
-2.21215e-07
-9.77064e-08
-1.97495e-07
-9.5318e-08
-1.7448e-07
-9.21714e-08
-1.52344e-07
-8.82743e-08
-1.31256e-07
-8.36438e-08
-1.11376e-07
-7.83077e-08
-9.28552e-08
-7.23066e-08
-7.58293e-08
-6.56965e-08
-6.0418e-08
-5.85525e-08
-4.67194e-08
-5.09721e-08
-3.48059e-08
-4.30812e-08
-2.47197e-08
-3.50403e-08
-1.64679e-08
-2.70531e-08
-1.00177e-08
-1.93769e-08
-5.29297e-09
-1.23354e-08
-2.17037e-09
-6.33193e-09
-4.78752e-10
-1.86591e-09
4.04144e-10
-8.06499e-10
6.39342e-10
-3.35384e-09
5.10093e-09
-7.76065e-09
1.18213e-08
-1.41195e-08
2.00951e-08
-2.24896e-08
2.93781e-08
-3.28939e-08
3.92268e-08
-4.53207e-08
4.92832e-08
-5.97248e-08
5.92623e-08
-7.60314e-08
6.89392e-08
-9.41395e-08
7.81381e-08
-1.13926e-07
8.67235e-08
-1.35251e-07
9.45923e-08
-1.57957e-07
1.01669e-07
-1.81879e-07
1.07898e-07
-2.0684e-07
1.13243e-07
-2.32661e-07
1.17684e-07
-2.59156e-07
1.21208e-07
-2.86141e-07
1.23816e-07
-3.1343e-07
1.25517e-07
-3.4084e-07
1.26323e-07
-3.68191e-07
1.26256e-07
-3.95307e-07
1.25339e-07
-4.22017e-07
1.236e-07
-4.48155e-07
1.21072e-07
-4.73565e-07
1.17786e-07
-4.98093e-07
1.1378e-07
-5.21597e-07
1.09091e-07
-5.4394e-07
1.03758e-07
-5.64995e-07
9.78222e-08
-5.84643e-07
9.13242e-08
-6.02774e-07
8.4307e-08
-6.19287e-07
7.68141e-08
-6.34092e-07
6.88901e-08
-6.47105e-07
6.05799e-08
-6.58256e-07
5.19296e-08
-6.67482e-07
4.2986e-08
-6.74731e-07
3.37966e-08
-6.79962e-07
2.44095e-08
-6.83143e-07
1.48739e-08
-6.84254e-07
5.23945e-09
-6.83286e-07
-4.44328e-09
-6.80238e-07
-1.41231e-08
-6.75125e-07
-2.37482e-08
-6.67968e-07
-3.3266e-08
-6.58802e-07
-4.26236e-08
-6.47673e-07
-5.17676e-08
-6.34639e-07
-6.06443e-08
-6.19767e-07
-6.91998e-08
-6.03137e-07
-7.73803e-08
-5.84841e-07
-8.51324e-08
-5.64979e-07
-9.24028e-08
-5.43664e-07
-9.91395e-08
-5.21021e-07
-1.05291e-07
-4.97181e-07
-1.10808e-07
-4.72289e-07
-1.15641e-07
-4.46497e-07
-1.19746e-07
-4.19966e-07
-1.23079e-07
-3.92865e-07
-1.256e-07
-3.6537e-07
-1.27272e-07
-3.37663e-07
-1.28063e-07
-3.09932e-07
-1.27947e-07
-2.82367e-07
-1.26902e-07
-2.55161e-07
-1.24912e-07
-2.28508e-07
-1.21971e-07
-2.02601e-07
-1.18079e-07
-1.77628e-07
-1.13247e-07
-1.53774e-07
-1.07498e-07
-1.31212e-07
-1.00869e-07
-1.10109e-07
-9.34101e-08
-9.06129e-08
-8.51923e-08
-7.28574e-08
-7.63079e-08
-5.69536e-08
-6.68759e-08
-4.29879e-08
-5.70469e-08
-3.10178e-08
-4.70104e-08
-2.10687e-08
-3.70022e-08
-1.31306e-08
-2.7315e-08
-7.15641e-09
-1.83096e-08
-3.06129e-09
-1.0427e-08
-7.25264e-10
-4.20196e-09
-3.21091e-10
-1.05694e-09
1.69626e-09
-4.27023e-09
8.31421e-09
-9.68883e-09
1.72399e-08
-1.73496e-08
2.77558e-08
-2.72671e-08
3.92956e-08
-3.94293e-08
5.13889e-08
-5.37955e-08
6.36494e-08
-7.02975e-08
7.57643e-08
-8.8841e-08
8.74826e-08
-1.09308e-07
9.86052e-08
-1.31561e-07
1.08976e-07
-1.55443e-07
1.18475e-07
-1.80786e-07
1.27012e-07
-2.07409e-07
1.34521e-07
-2.35123e-07
1.40958e-07
-2.63734e-07
1.46294e-07
-2.93044e-07
1.50517e-07
-3.22852e-07
1.53625e-07
-3.52961e-07
1.55625e-07
-3.83172e-07
1.56535e-07
-4.13292e-07
1.56376e-07
-4.43131e-07
1.55178e-07
-4.72504e-07
1.52974e-07
-5.01233e-07
1.49801e-07
-5.29148e-07
1.45701e-07
-5.56083e-07
1.40716e-07
-5.81884e-07
1.34892e-07
-6.06403e-07
1.28278e-07
-6.29502e-07
1.20921e-07
-6.51053e-07
1.12875e-07
-6.70936e-07
1.0419e-07
-6.89041e-07
9.49199e-08
-7.05271e-07
8.51197e-08
-7.19536e-07
7.48447e-08
-7.31758e-07
6.41515e-08
-7.41869e-07
5.30977e-08
-7.49814e-07
4.17417e-08
-7.55548e-07
3.0143e-08
-7.59036e-07
1.83621e-08
-7.60257e-07
6.46009e-09
-7.59199e-07
-5.50073e-09
-7.55865e-07
-1.74574e-08
-7.50267e-07
-2.9346e-08
-7.42431e-07
-4.11021e-08
-7.32394e-07
-5.26605e-08
-7.20206e-07
-6.39557e-08
-7.05929e-07
-7.49217e-08
-6.89636e-07
-8.54924e-08
-6.71415e-07
-9.56018e-08
-6.51363e-07
-1.05184e-07
-6.2959e-07
-1.14175e-07
-6.0622e-07
-1.2251e-07
-5.81384e-07
-1.30127e-07
-5.55228e-07
-1.36964e-07
-5.27906e-07
-1.42963e-07
-4.99583e-07
-1.48069e-07
-4.70433e-07
-1.52229e-07
-4.40638e-07
-1.55394e-07
-4.10389e-07
-1.57521e-07
-3.79881e-07
-1.58571e-07
-3.49318e-07
-1.58511e-07
-3.18904e-07
-1.57316e-07
-2.88847e-07
-1.54969e-07
-2.59356e-07
-1.51462e-07
-2.30638e-07
-1.46797e-07
-2.02897e-07
-1.40988e-07
-1.7633e-07
-1.34065e-07
-1.51128e-07
-1.26071e-07
-1.27469e-07
-1.1707e-07
-1.05516e-07
-1.07145e-07
-8.54173e-08
-9.64069e-08
-6.72984e-08
-8.49948e-08
-5.12622e-08
-7.30831e-08
-3.73848e-08
-6.08877e-08
-2.57135e-08
-4.86736e-08
-1.62646e-08
-3.67638e-08
-9.02375e-09
-2.55505e-08
-3.94731e-09
-1.55035e-08
-9.67034e-10
-7.18226e-09
-1.28811e-09
-1.29949e-09
2.9957e-09
-5.16779e-09
1.21825e-08
-1.15903e-08
2.36624e-08
-2.05502e-08
3.67157e-08
-3.20168e-08
5.07623e-08
-4.59409e-08
6.5313e-08
-6.2251e-08
7.99595e-08
-8.08529e-08
9.43662e-08
-1.0163e-07
1.0826e-07
-1.24446e-07
1.21421e-07
-1.49146e-07
1.33675e-07
-1.75558e-07
1.44887e-07
-2.03498e-07
1.54952e-07
-2.32773e-07
1.63796e-07
-2.6318e-07
1.71364e-07
-2.9451e-07
1.77625e-07
-3.26554e-07
1.82561e-07
-3.59097e-07
1.86169e-07
-3.91929e-07
1.88457e-07
-4.24839e-07
1.89444e-07
-4.5762e-07
1.89157e-07
-4.9007e-07
1.87627e-07
-5.21992e-07
1.84896e-07
-5.53196e-07
1.81005e-07
-5.83499e-07
1.76004e-07
-6.12727e-07
1.69943e-07
-6.40713e-07
1.62878e-07
-6.673e-07
1.54864e-07
-6.9234e-07
1.45962e-07
-7.15696e-07
1.36231e-07
-7.3724e-07
1.25734e-07
-7.56855e-07
1.14535e-07
-7.74435e-07
1.027e-07
-7.89886e-07
9.02954e-08
-8.03123e-07
7.73889e-08
-8.14075e-07
6.40499e-08
-8.22682e-07
5.03484e-08
-8.28895e-07
3.63561e-08
-8.32678e-07
2.21453e-08
-8.34008e-07
7.78968e-09
-8.32873e-07
-6.63605e-09
-8.29274e-07
-2.10562e-08
-8.23225e-07
-3.53943e-08
-8.14755e-07
-4.95729e-08
-8.03901e-07
-6.35138e-08
-7.90719e-07
-7.71384e-08
-7.75273e-07
-9.03677e-08
-7.57642e-07
-1.03123e-07
-7.3792e-07
-1.15324e-07
-7.16211e-07
-1.26894e-07
-6.92632e-07
-1.37754e-07
-6.67314e-07
-1.47828e-07
-6.404e-07
-1.57041e-07
-6.12042e-07
-1.65321e-07
-5.82407e-07
-1.72598e-07
-5.51671e-07
-1.78806e-07
-5.20018e-07
-1.83882e-07
-4.87643e-07
-1.87769e-07
-4.5475e-07
-1.90414e-07
-4.21547e-07
-1.91773e-07
-3.8825e-07
-1.91808e-07
-3.55078e-07
-1.90488e-07
-3.22253e-07
-1.87794e-07
-2.89998e-07
-1.83717e-07
-2.58533e-07
-1.78262e-07
-2.28076e-07
-1.71445e-07
-1.9884e-07
-1.63301e-07
-1.71028e-07
-1.53883e-07
-1.44833e-07
-1.43264e-07
-1.20434e-07
-1.31544e-07
-9.79946e-08
-1.18847e-07
-7.76565e-08
-1.05333e-07
-5.95414e-08
-9.11981e-08
-4.37467e-08
-7.66825e-08
-3.03437e-08
-6.20766e-08
-1.93779e-08
-4.77296e-08
-1.08696e-08
-3.40587e-08
-4.81688e-09
-2.15562e-08
-1.2015e-09
-1.07976e-08
-2.48962e-09
-1.53324e-09
4.52892e-09
-6.041e-09
1.66903e-08
-1.34515e-08
3.10729e-08
-2.3697e-08
4.69611e-08
-3.67029e-08
6.37682e-08
-5.23818e-08
8.09919e-08
-7.06299e-08
9.82076e-08
-9.13254e-08
1.15062e-07
-1.14328e-07
1.31263e-07
-1.3948e-07
1.46573e-07
-1.66608e-07
1.60803e-07
-1.95525e-07
1.73803e-07
-2.2603e-07
1.85458e-07
-2.57916e-07
1.95681e-07
-2.90966e-07
2.04414e-07
-3.24959e-07
2.11618e-07
-3.59672e-07
2.17273e-07
-3.94878e-07
2.21375e-07
-4.30355e-07
2.23934e-07
-4.65879e-07
2.24968e-07
-5.01232e-07
2.2451e-07
-5.36201e-07
2.22596e-07
-5.70577e-07
2.19272e-07
-6.0416e-07
2.14588e-07
-6.36756e-07
2.086e-07
-6.68181e-07
2.01368e-07
-6.98258e-07
1.92956e-07
-7.26822e-07
1.83428e-07
-7.53717e-07
1.72856e-07
-7.78796e-07
1.6131e-07
-8.01924e-07
1.48862e-07
-8.22979e-07
1.3559e-07
-8.41848e-07
1.21569e-07
-8.5843e-07
1.06878e-07
-8.72637e-07
9.15961e-08
-8.84393e-07
7.58057e-08
-8.93634e-07
5.95892e-08
-9.00308e-07
4.30306e-08
-9.04378e-07
2.62153e-08
-9.05819e-07
9.22994e-09
-9.04617e-07
-7.83765e-09
-9.00775e-07
-2.48984e-08
-8.94307e-07
-4.18623e-08
-8.85242e-07
-5.86382e-08
-8.73621e-07
-7.51343e-08
-8.59501e-07
-9.12582e-08
-8.42952e-07
-1.06917e-07
-8.24057e-07
-1.22018e-07
-8.02912e-07
-1.36468e-07
-7.7963e-07
-1.50176e-07
-7.54334e-07
-1.6305e-07
-7.27162e-07
-1.75e-07
-6.98264e-07
-1.85939e-07
-6.67803e-07
-1.95782e-07
-6.35953e-07
-2.04448e-07
-6.029e-07
-2.11859e-07
-5.68841e-07
-2.17942e-07
-5.3398e-07
-2.2263e-07
-4.98532e-07
-2.25862e-07
-4.62718e-07
-2.27587e-07
-4.26767e-07
-2.27759e-07
-3.9091e-07
-2.26345e-07
-3.55382e-07
-2.23322e-07
-3.20418e-07
-2.18681e-07
-2.86255e-07
-2.12425e-07
-2.53122e-07
-2.04577e-07
-2.21248e-07
-1.95176e-07
-1.90849e-07
-1.84281e-07
-1.62135e-07
-1.71979e-07
-1.35299e-07
-1.58379e-07
-1.10522e-07
-1.43624e-07
-8.79654e-08
-1.2789e-07
-6.77704e-08
-1.11393e-07
-5.00574e-08
-9.43956e-08
-3.49241e-08
-7.72098e-08
-2.24465e-08
-6.02072e-08
-1.26802e-08
-4.3825e-08
-5.66435e-09
-2.8572e-08
-1.42773e-09
-1.50342e-08
-3.91737e-09
-1.7582e-09
6.28713e-09
-6.88789e-09
2.182e-08
-1.52661e-08
3.94511e-08
-2.67776e-08
5.84727e-08
-4.13053e-08
7.8296e-08
-5.87243e-08
9.84109e-08
-7.88976e-08
1.18381e-07
-1.01675e-07
1.37839e-07
-1.2689e-07
1.56478e-07
-1.54364e-07
1.74047e-07
-1.83902e-07
1.90342e-07
-2.15301e-07
2.05202e-07
-2.48343e-07
2.185e-07
-2.82807e-07
2.30144e-07
-3.1846e-07
2.40068e-07
-3.5507e-07
2.48228e-07
-3.92399e-07
2.54602e-07
-4.3021e-07
2.59187e-07
-4.68267e-07
2.61991e-07
-5.06337e-07
2.63038e-07
-5.4419e-07
2.62363e-07
-5.81601e-07
2.60008e-07
-6.18354e-07
2.56024e-07
-6.54235e-07
2.5047e-07
-6.89045e-07
2.43409e-07
-7.22587e-07
2.34911e-07
-7.54678e-07
2.25047e-07
-7.85143e-07
2.13894e-07
-8.1382e-07
2.01532e-07
-8.40554e-07
1.88043e-07
-8.65204e-07
1.73513e-07
-8.87641e-07
1.58027e-07
-9.07746e-07
1.41674e-07
-9.25415e-07
1.24546e-07
-9.40554e-07
1.06735e-07
-9.53084e-07
8.83356e-08
-9.62938e-07
6.94424e-08
-9.7006e-07
5.01534e-08
-9.74412e-07
3.05674e-08
-9.75967e-07
1.07846e-08
-9.74711e-07
-9.09327e-09
-9.70647e-07
-2.89632e-08
-9.63788e-07
-4.87209e-08
-9.54165e-07
-6.82612e-08
-9.41821e-07
-8.74778e-08
-9.26816e-07
-1.06264e-07
-9.09221e-07
-1.24512e-07
-8.89124e-07
-1.42115e-07
-8.66626e-07
-1.58966e-07
-8.41844e-07
-1.74958e-07
-8.14908e-07
-1.89986e-07
-7.85961e-07
-2.03947e-07
-7.55161e-07
-2.16739e-07
-7.22678e-07
-2.28265e-07
-6.88695e-07
-2.38431e-07
-6.53407e-07
-2.47147e-07
-6.17019e-07
-2.5433e-07
-5.79748e-07
-2.59901e-07
-5.41818e-07
-2.63793e-07
-5.03461e-07
-2.65943e-07
-4.64918e-07
-2.66302e-07
-4.26431e-07
-2.64831e-07
-3.8825e-07
-2.61504e-07
-3.50622e-07
-2.56309e-07
-3.13795e-07
-2.49252e-07
-2.78017e-07
-2.40356e-07
-2.43526e-07
-2.29666e-07
-2.10558e-07
-2.1725e-07
-1.79336e-07
-2.03201e-07
-1.50071e-07
-1.87644e-07
-1.22962e-07
-1.70733e-07
-9.81895e-08
-1.52662e-07
-7.59179e-08
-1.33665e-07
-5.62917e-08
-1.14022e-07
-3.94363e-08
-9.40652e-08
-2.54587e-08
-7.41848e-08
-1.44497e-08
-5.48341e-08
-6.48784e-09
-3.65339e-08
-1.64571e-09
-1.98763e-08
-5.56309e-09
-1.97485e-09
8.262e-09
-7.70869e-09
2.75538e-08
-1.70326e-08
4.8775e-08
-2.97875e-08
7.12276e-08
-4.58157e-08
9.43242e-08
-6.49554e-08
1.17551e-07
-8.70367e-08
1.40462e-07
-1.11879e-07
1.62681e-07
-1.39292e-07
1.8389e-07
-1.69071e-07
2.03826e-07
-2.01003e-07
2.22274e-07
-2.34863e-07
2.39062e-07
-2.70419e-07
2.54056e-07
-3.07431e-07
2.67157e-07
-3.45655e-07
2.78292e-07
-3.84843e-07
2.87416e-07
-4.24746e-07
2.94505e-07
-4.65114e-07
2.99555e-07
-5.05701e-07
3.02577e-07
-5.4626e-07
3.03598e-07
-5.86554e-07
3.02656e-07
-6.26346e-07
2.998e-07
-6.6541e-07
2.95088e-07
-7.03526e-07
2.88586e-07
-7.40482e-07
2.80365e-07
-7.76076e-07
2.70505e-07
-8.10116e-07
2.59087e-07
-8.4242e-07
2.46198e-07
-8.72818e-07
2.3193e-07
-9.01151e-07
2.16376e-07
-9.2727e-07
1.99632e-07
-9.51041e-07
1.81798e-07
-9.72341e-07
1.62975e-07
-9.91061e-07
1.43266e-07
-1.0071e-06
1.22777e-07
-1.02038e-06
1.01616e-07
-1.03083e-06
7.98918e-08
-1.03839e-06
5.77154e-08
-1.04303e-06
3.51998e-08
-1.0447e-06
1.24593e-08
-1.0434e-06
-1.03899e-08
-1.03914e-06
-3.32304e-08
-1.03192e-06
-5.59431e-08
-1.02177e-06
-7.84081e-08
-1.00874e-06
-1.00504e-07
-9.92896e-07
-1.22109e-07
-9.74307e-07
-1.43101e-07
-9.53065e-07
-1.63358e-07
-9.29274e-07
-1.82756e-07
-9.03056e-07
-2.01176e-07
-8.74545e-07
-2.18497e-07
-8.43892e-07
-2.346e-07
-8.11258e-07
-2.49372e-07
-7.76823e-07
-2.62701e-07
-7.40775e-07
-2.74479e-07
-7.03319e-07
-2.84604e-07
-6.64668e-07
-2.92981e-07
-6.25047e-07
-2.99522e-07
-5.84692e-07
-3.04148e-07
-5.43846e-07
-3.0679e-07
-5.02759e-07
-3.0739e-07
-4.61686e-07
-3.05904e-07
-4.20889e-07
-3.02301e-07
-3.80628e-07
-2.9657e-07
-3.41165e-07
-2.88714e-07
-3.02761e-07
-2.7876e-07
-2.65671e-07
-2.66756e-07
-2.30144e-07
-2.52777e-07
-1.96421e-07
-2.36924e-07
-1.64733e-07
-2.19332e-07
-1.35296e-07
-2.0017e-07
-1.08313e-07
-1.79645e-07
-8.39707e-08
-1.58007e-07
-6.24398e-08
-1.35553e-07
-4.38739e-08
-1.12631e-07
-2.84113e-08
-8.96475e-08
-1.61772e-08
-6.70681e-08
-7.28785e-09
-4.54232e-08
-1.85599e-09
-2.53082e-08
-7.41908e-09
-2.18395e-09
1.0446e-08
-8.50495e-09
3.38748e-08
-1.87526e-08
5.90227e-08
-3.27275e-08
8.52024e-08
-5.02332e-08
1.1183e-07
-7.10722e-08
1.3839e-07
-9.50419e-08
1.64432e-07
-1.21932e-07
1.89572e-07
-1.51525e-07
2.13483e-07
-1.83593e-07
2.35894e-07
-2.17901e-07
2.56581e-07
-2.54204e-07
2.75365e-07
-2.92252e-07
2.92104e-07
-3.31789e-07
3.06694e-07
-3.72557e-07
3.1906e-07
-4.14293e-07
3.29152e-07
-4.56735e-07
3.36947e-07
-4.99622e-07
3.42442e-07
-5.42696e-07
3.4565e-07
-5.857e-07
3.46602e-07
-6.28385e-07
3.45341e-07
-6.70508e-07
3.41923e-07
-7.11831e-07
3.36411e-07
-7.52127e-07
3.28881e-07
-7.91175e-07
3.19414e-07
-8.28767e-07
3.08096e-07
-8.64703e-07
2.95022e-07
-8.98794e-07
2.8029e-07
-9.30864e-07
2.64e-07
-9.60748e-07
2.4626e-07
-9.88294e-07
2.27177e-07
-1.01336e-06
2.06864e-07
-1.03582e-06
1.85435e-07
-1.05556e-06
1.63006e-07
-1.07248e-06
1.39697e-07
-1.08649e-06
1.15629e-07
-1.09753e-06
9.09255e-08
-1.10552e-06
6.57112e-08
-1.11044e-06
4.01135e-08
-1.11224e-06
1.42615e-08
-1.11092e-06
-1.17138e-08
-1.10647e-06
-3.76799e-08
-1.09891e-06
-6.35028e-08
-1.08827e-06
-8.90471e-08
-1.0746e-06
-1.14176e-07
-1.05795e-06
-1.38753e-07
-1.03842e-06
-1.62638e-07
-1.01608e-06
-1.85696e-07
-9.91047e-07
-2.07787e-07
-9.63449e-07
-2.28774e-07
-9.33421e-07
-2.48524e-07
-9.01119e-07
-2.66903e-07
-8.66711e-07
-2.8378e-07
-8.30382e-07
-2.99031e-07
-7.92327e-07
-3.12533e-07
-7.52757e-07
-3.24173e-07
-7.11896e-07
-3.33842e-07
-6.69976e-07
-3.41442e-07
-6.27242e-07
-3.46882e-07
-5.83947e-07
-3.50084e-07
-5.40353e-07
-3.50984e-07
-4.96727e-07
-3.4953e-07
-4.53341e-07
-3.45688e-07
-4.1047e-07
-3.39441e-07
-3.68388e-07
-3.30795e-07
-3.27372e-07
-3.19777e-07
-2.87691e-07
-3.06437e-07
-2.49613e-07
-2.90855e-07
-2.13395e-07
-2.73142e-07
-1.79286e-07
-2.53441e-07
-1.47524e-07
-2.31932e-07
-1.18335e-07
-2.08834e-07
-9.19289e-08
-1.84413e-07
-6.85027e-08
-1.58979e-07
-4.82388e-08
-1.32895e-07
-3.13068e-08
-1.06579e-07
-1.78654e-08
-8.05095e-08
-8.06637e-09
-5.52223e-08
-2.05941e-09
-3.13151e-08
-9.47849e-09
-2.38637e-09
1.28323e-08
-9.27899e-09
4.07675e-08
-2.04299e-08
7.01736e-08
-3.56019e-08
1.00374e-07
-5.45622e-08
1.3079e-07
-7.70787e-08
1.60906e-07
-1.02917e-07
1.9027e-07
-1.31836e-07
2.18492e-07
-1.63593e-07
2.45239e-07
-1.97933e-07
2.70235e-07
-2.346e-07
2.93248e-07
-2.73329e-07
3.14094e-07
-3.13851e-07
3.32627e-07
-3.55894e-07
3.48737e-07
-3.99183e-07
3.62348e-07
-4.43441e-07
3.73411e-07
-4.88395e-07
3.81901e-07
-5.33769e-07
3.87817e-07
-5.79295e-07
3.91177e-07
-6.24707e-07
3.92014e-07
-6.69745e-07
3.90379e-07
-7.14157e-07
3.86334e-07
-7.57696e-07
3.79951e-07
-8.00127e-07
3.71312e-07
-8.41223e-07
3.6051e-07
-8.80767e-07
3.47641e-07
-9.18555e-07
3.3281e-07
-9.5439e-07
3.16125e-07
-9.88092e-07
2.97702e-07
-1.01949e-06
2.77657e-07
-1.04843e-06
2.56113e-07
-1.07476e-06
2.33194e-07
-1.09835e-06
2.09028e-07
-1.11909e-06
1.83745e-07
-1.13687e-06
1.57478e-07
-1.1516e-06
1.30362e-07
-1.16321e-06
1.02536e-07
-1.17164e-06
7.41385e-08
-1.17684e-06
4.5312e-08
-1.17878e-06
1.62004e-08
-1.17744e-06
-1.30502e-08
-1.17283e-06
-4.22918e-08
-1.16496e-06
-7.13748e-08
-1.15385e-06
-1.00148e-07
-1.13957e-06
-1.28459e-07
-1.12217e-06
-1.56155e-07
-1.10173e-06
-1.83081e-07
-1.07834e-06
-2.09084e-07