/*--------------------------------*- C++ -*----------------------------------*\
  =========                 |
  \\      /  F ield         | OpenFOAM: The Open Source CFD Toolbox
   \\    /   O peration     | Website:  https://openfoam.org
    \\  /    A nd           | Version:  7
     \\/     M anipulation  |
\*---------------------------------------------------------------------------*/
FoamFile
{
    version     2.0;
    format      ascii;
    class       volVectorField;
    location    "0.4";
    object      U;
}
// * * * * * * * * * * * * * * * * * * * * * * * * * * * * * * * * * * * * * //

dimensions      [0 1 -1 0 0 0 0];

internalField   nonuniform List<vector> 
6400
(
(7.18372e-06 -7.31411e-06 0)
(2.97018e-05 -1.4475e-05 0)
(5.92449e-05 -1.4184e-05 0)
(8.05758e-05 -9.73695e-06 0)
(8.54269e-05 -3.42812e-06 0)
(7.05634e-05 3.54334e-06 0)
(3.48647e-05 1.05627e-05 0)
(-2.16399e-05 1.73113e-05 0)
(-9.81979e-05 2.36273e-05 0)
(-0.000193619 2.94296e-05 0)
(-0.000306456 3.46802e-05 0)
(-0.000435111 3.93643e-05 0)
(-0.000577906 4.34801e-05 0)
(-0.00073312 4.70341e-05 0)
(-0.000899028 5.00383e-05 0)
(-0.00107391 5.25078e-05 0)
(-0.00125608 5.44601e-05 0)
(-0.00144389 5.59138e-05 0)
(-0.00163573 5.68883e-05 0)
(-0.00183004 5.74036e-05 0)
(-0.00202534 5.74801e-05 0)
(-0.0022202 5.71382e-05 0)
(-0.00241322 5.63987e-05 0)
(-0.00260311 5.52821e-05 0)
(-0.00278862 5.3809e-05 0)
(-0.00296857 5.19996e-05 0)
(-0.00314184 4.98744e-05 0)
(-0.0033074 4.74533e-05 0)
(-0.00346426 4.47563e-05 0)
(-0.00361151 4.18034e-05 0)
(-0.0037483 3.86145e-05 0)
(-0.00387387 3.52095e-05 0)
(-0.00398749 3.16084e-05 0)
(-0.00408854 2.78312e-05 0)
(-0.00417645 2.38982e-05 0)
(-0.00425072 1.98298e-05 0)
(-0.00431092 1.56468e-05 0)
(-0.0043567 1.13702e-05 0)
(-0.00438778 7.02153e-06 0)
(-0.00440395 2.62256e-06 0)
(-0.00440509 -1.80444e-06 0)
(-0.00439115 -6.23672e-06 0)
(-0.00436215 -1.06511e-05 0)
(-0.00431821 -1.50238e-05 0)
(-0.00425952 -1.93306e-05 0)
(-0.00418635 -2.35469e-05 0)
(-0.00409907 -2.76476e-05 0)
(-0.00399811 -3.16074e-05 0)
(-0.00388402 -3.54004e-05 0)
(-0.00375741 -3.90007e-05 0)
(-0.00361899 -4.23821e-05 0)
(-0.00346956 -4.55186e-05 0)
(-0.00330999 -4.83841e-05 0)
(-0.00314126 -5.09528e-05 0)
(-0.00296443 -5.31989e-05 0)
(-0.00278061 -5.50973e-05 0)
(-0.00259104 -5.66234e-05 0)
(-0.002397 -5.77536e-05 0)
(-0.00219987 -5.84651e-05 0)
(-0.00200108 -5.87366e-05 0)
(-0.00180214 -5.85475e-05 0)
(-0.0016046 -5.78785e-05 0)
(-0.00141008 -5.6712e-05 0)
(-0.00122023 -5.50325e-05 0)
(-0.00103676 -5.28269e-05 0)
(-0.000861373 -5.00847e-05 0)
(-0.000695808 -4.67976e-05 0)
(-0.000541794 -4.29602e-05 0)
(-0.000401039 -3.85716e-05 0)
(-0.000275205 -3.36377e-05 0)
(-0.000165876 -2.81742e-05 0)
(-7.4512e-05 -2.22117e-05 0)
(-2.38283e-06 -1.58042e-05 0)
(4.95414e-05 -9.04819e-06 0)
(8.07666e-05 -2.12191e-06 0)
(9.15592e-05 4.64022e-06 0)
(8.33666e-05 1.06114e-05 0)
(5.97529e-05 1.4595e-05 0)
(2.92268e-05 1.43494e-05 0)
(6.87128e-06 6.86844e-06 0)
(1.44187e-05 -2.99018e-05 0)
(5.14795e-05 -5.1541e-05 0)
(8.97574e-05 -4.40877e-05 0)
(0.000103494 -1.91042e-05 0)
(7.69789e-05 1.53065e-05 0)
(2.36332e-06 5.41186e-05 0)
(-0.000124051 9.42516e-05 0)
(-0.000303183 0.000133816 0)
(-0.00053399 0.000171652 0)
(-0.000814105 0.000207046 0)
(-0.00114029 0.00023956 0)
(-0.00150873 0.000268933 0)
(-0.00191524 0.000295019 0)
(-0.00235543 0.000317753 0)
(-0.00282477 0.000337122 0)
(-0.0033187 0.000353157 0)
(-0.00383269 0.000365913 0)
(-0.00436225 0.000375468 0)
(-0.00490298 0.000381914 0)
(-0.0054506 0.000385354 0)
(-0.00600097 0.000385898 0)
(-0.00655007 0.000383666 0)
(-0.00709408 0.00037878 0)
(-0.0076293 0.000371365 0)
(-0.00815223 0.000361549 0)
(-0.00865955 0.000349463 0)
(-0.0091481 0.000335237 0)
(-0.00961493 0.000319003 0)
(-0.0100572 0.000300895 0)
(-0.0104725 0.000281046 0)
(-0.0108582 0.000259592 0)
(-0.0112122 0.000236667 0)
(-0.0115326 0.000212408 0)
(-0.0118174 0.000186953 0)
(-0.0120651 0.000160442 0)
(-0.0122743 0.000133017 0)
(-0.0124437 0.000104819 0)
(-0.0125724 7.59954e-05 0)
(-0.0126596 4.66933e-05 0)
(-0.0127047 1.70635e-05 0)
(-0.0127074 -1.2741e-05 0)
(-0.0126675 -4.25641e-05 0)
(-0.0125851 -7.22469e-05 0)
(-0.0124607 -0.000101628 0)
(-0.0122946 -0.000130543 0)
(-0.0120878 -0.000158824 0)
(-0.0118412 -0.000186304 0)
(-0.0115562 -0.000212812 0)
(-0.0112343 -0.000238175 0)
(-0.0108772 -0.000262221 0)
(-0.010487 -0.000284777 0)
(-0.0100658 -0.000305671 0)
(-0.00961631 -0.000324732 0)
(-0.00914114 -0.000341791 0)
(-0.00864327 -0.000356683 0)
(-0.00812592 -0.000369248 0)
(-0.00759249 -0.00037933 0)
(-0.0070466 -0.00038678 0)
(-0.00649208 -0.000391459 0)
(-0.00593293 -0.000393235 0)
(-0.00537332 -0.000391989 0)
(-0.00481757 -0.000387613 0)
(-0.00427012 -0.000380016 0)
(-0.00373551 -0.00036912 0)
(-0.00321835 -0.000354873 0)
(-0.0027233 -0.000337242 0)
(-0.002255 -0.000316225 0)
(-0.00181802 -0.000291854 0)
(-0.00141682 -0.000264207 0)
(-0.00105565 -0.00023342 0)
(-0.000738449 -0.000199717 0)
(-0.000468669 -0.000163437 0)
(-0.000249107 -0.000125099 0)
(-8.15927e-05 -8.54942e-05 0)
(3.34457e-05 -4.58486e-05 0)
(9.7596e-05 -8.09858e-06 0)
(0.000115244 2.46681e-05 0)
(9.48607e-05 4.74999e-05 0)
(5.26135e-05 5.25614e-05 0)
(1.43501e-05 2.9202e-05 0)
(1.42761e-05 -5.9452e-05 0)
(4.45314e-05 -8.99162e-05 0)
(6.12295e-05 -6.04712e-05 0)
(3.55641e-05 6.71946e-06 0)
(-5.08306e-05 9.62435e-05 0)
(-0.000208173 0.000197447 0)
(-0.000441797 0.000303097 0)
(-0.00075341 0.000408355 0)
(-0.00114198 0.000509999 0)
(-0.00160449 0.000605886 0)
(-0.00213654 0.000694602 0)
(-0.00273273 0.000775231 0)
(-0.00338699 0.000847203 0)
(-0.00409284 0.000910195 0)
(-0.0048435 0.000964064 0)
(-0.00563207 0.00100879 0)
(-0.0064516 0.00104447 0)
(-0.0072952 0.00107124 0)
(-0.00815604 0.00108932 0)
(-0.00902748 0.00109895 0)
(-0.00990301 0.00110042 0)
(-0.0107764 0.00109403 0)
(-0.0116415 0.00108012 0)
(-0.0124926 0.00105902 0)
(-0.0133241 0.00103107 0)
(-0.0141307 0.00099665 0)
(-0.0149075 0.000956114 0)
(-0.0156497 0.000909837 0)
(-0.0163529 0.000858194 0)
(-0.017013 0.000801566 0)
(-0.0176262 0.000740338 0)
(-0.018189 0.000674897 0)
(-0.0186981 0.000605637 0)
(-0.0191507 0.000532954 0)
(-0.0195442 0.00045725 0)
(-0.0198764 0.000378934 0)
(-0.0201453 0.000298417 0)
(-0.0203494 0.000216119 0)
(-0.0204875 0.000132468 0)
(-0.0205586 4.78964e-05 0)
(-0.0205623 -3.71541e-05 0)
(-0.0204983 -0.000122235 0)
(-0.0203667 -0.00020689 0)
(-0.0201683 -0.000290656 0)
(-0.0199038 -0.000373063 0)
(-0.0195745 -0.000453634 0)
(-0.0191822 -0.000531888 0)
(-0.0187288 -0.000607339 0)
(-0.0182169 -0.000679499 0)
(-0.0176491 -0.000747878 0)
(-0.0170289 -0.000811987 0)
(-0.0163597 -0.000871341 0)
(-0.0156455 -0.00092546 0)
(-0.0148907 -0.000973871 0)
(-0.0140999 -0.00101611 0)
(-0.0132782 -0.00105174 0)
(-0.0124311 -0.00108032 0)
(-0.0115641 -0.00110146 0)
(-0.0106834 -0.00111475 0)
(-0.00979523 -0.00111987 0)
(-0.00890608 -0.00111648 0)
(-0.00802271 -0.00110431 0)
(-0.00715204 -0.00108313 0)
(-0.00630111 -0.00105278 0)
(-0.00547705 -0.00101313 0)
(-0.004687 -0.000964161 0)
(-0.00393803 -0.000905932 0)
(-0.00323707 -0.000838618 0)
(-0.00259079 -0.000762541 0)
(-0.00200546 -0.000678211 0)
(-0.00148678 -0.000586394 0)
(-0.00103962 -0.000488202 0)
(-0.000667772 -0.000385245 0)
(-0.000373475 -0.000279842 0)
(-0.000156906 -0.000175358 0)
(-1.54416e-05 -7.67088e-05 0)
(5.7165e-05 8.90705e-06 0)
(7.19424e-05 7.10589e-05 0)
(4.79777e-05 9.49208e-05 0)
(1.4679e-05 5.979e-05 0)
(1.00486e-05 -8.12e-05 0)
(2.03868e-05 -0.000104391 0)
(-4.31015e-06 -3.51625e-05 0)
(-9.08134e-05 9.36632e-05 0)
(-0.000257268 0.000259321 0)
(-0.000514623 0.000445266 0)
(-0.000868786 0.000639633 0)
(-0.00132171 0.000834064 0)
(-0.00187225 0.00102271 0)
(-0.00251686 0.00120149 0)
(-0.00325026 0.00136758 0)
(-0.00406585 0.0015191 0)
(-0.0049561 0.00165477 0)
(-0.00591284 0.00177382 0)
(-0.00692747 0.00187586 0)
(-0.00799113 0.00196072 0)
(-0.00909487 0.00202846 0)
(-0.0102297 0.0020793 0)
(-0.0113868 0.00211357 0)
(-0.0125573 0.00213168 0)
(-0.0137328 0.00213414 0)
(-0.014905 0.0021215 0)
(-0.0160657 0.00209434 0)
(-0.0172074 0.00205331 0)
(-0.0183226 0.00199906 0)
(-0.0194043 0.00193227 0)
(-0.0204459 0.00185364 0)
(-0.021441 0.00176387 0)
(-0.0223837 0.0016637 0)
(-0.0232686 0.00155385 0)
(-0.0240904 0.00143507 0)
(-0.0248446 0.00130811 0)
(-0.0255268 0.00117373 0)
(-0.0261331 0.00103272 0)
(-0.0266602 0.000885844 0)
(-0.027105 0.000733905 0)
(-0.0274649 0.000577708 0)
(-0.027738 0.000418072 0)
(-0.0279224 0.000255827 0)
(-0.0280172 9.18211e-05 0)
(-0.0280214 -7.30878e-05 0)
(-0.027935 -0.000238026 0)
(-0.0277581 -0.000402106 0)
(-0.0274915 -0.000564428 0)
(-0.0271364 -0.00072408 0)
(-0.0266947 -0.000880137 0)
(-0.0261685 -0.00103167 0)
(-0.0255606 -0.00117774 0)
(-0.0248743 -0.0013174 0)
(-0.0241134 -0.00144971 0)
(-0.0232822 -0.00157373 0)
(-0.0223855 -0.00168853 0)
(-0.0214287 -0.00179319 0)
(-0.0204174 -0.0018868 0)
(-0.0193579 -0.00196849 0)
(-0.0182571 -0.00203742 0)
(-0.0171221 -0.00209276 0)
(-0.0159603 -0.00213375 0)
(-0.0147799 -0.00215969 0)
(-0.0135891 -0.00216992 0)
(-0.0123965 -0.00216385 0)
(-0.011211 -0.00214101 0)
(-0.0100416 -0.00210099 0)
(-0.00889766 -0.00204352 0)
(-0.00778834 -0.00196844 0)
(-0.00672293 -0.00187577 0)
(-0.00571056 -0.00176572 0)
(-0.00476009 -0.00163872 0)
(-0.00388002 -0.00149552 0)
(-0.00307823 -0.00133723 0)
(-0.00236179 -0.00116544 0)
(-0.00173668 -0.00098242 0)
(-0.00120743 -0.000791314 0)
(-0.00077664 -0.000596497 0)
(-0.000444436 -0.000404048 0)
(-0.000207764 -0.000222435 0)
(-5.96239e-05 -6.34451e-05 0)
(1.1934e-05 5.67364e-05 0)
(2.61084e-05 0.000116182 0)
(1.09041e-05 8.38362e-05 0)
(4.01631e-06 -8.70407e-05 0)
(-1.30179e-05 -7.9521e-05 0)
(-9.19822e-05 4.99684e-05 0)
(-0.000253958 0.000259681 0)
(-0.000514791 0.000520223 0)
(-0.000884928 0.000809536 0)
(-0.00136995 0.00111123 0)
(-0.00197146 0.0014133 0)
(-0.00268789 0.00170705 0)
(-0.00351513 0.00198619 0)
(-0.00444707 0.00224623 0)
(-0.00547611 0.00248402 0)
(-0.00659351 0.00269741 0)
(-0.00778969 0.00288501 0)
(-0.00905454 0.003046 0)
(-0.0103776 0.00318001 0)
(-0.0117481 0.00328699 0)
(-0.0131554 0.00336719 0)
(-0.0145888 0.00342102 0)
(-0.0160377 0.00344911 0)
(-0.0174918 0.00345216 0)
(-0.0189411 0.00343102 0)
(-0.0203757 0.0033866 0)
(-0.0217863 0.00331987 0)
(-0.0231638 0.00323186 0)
(-0.0244996 0.00312365 0)
(-0.0257856 0.00299634 0)
(-0.0270141 0.00285106 0)
(-0.0281777 0.00268898 0)
(-0.0292697 0.00251127 0)
(-0.0302838 0.00231912 0)
(-0.0312143 0.00211376 0)
(-0.0320558 0.00189642 0)
(-0.0328037 0.00166835 0)
(-0.0334536 0.00143082 0)
(-0.034002 0.00118512 0)
(-0.0344456 0.000932551 0)
(-0.0347819 0.000674446 0)
(-0.0350089 0.000412155 0)
(-0.0351251 0.000147048 0)
(-0.0351297 -0.000119483 0)
(-0.0350225 -0.000386022 0)
(-0.0348037 -0.000651133 0)
(-0.0344742 -0.000913362 0)
(-0.0340357 -0.00117123 0)
(-0.0334904 -0.00142326 0)
(-0.0328409 -0.00166794 0)
(-0.0320907 -0.00190375 0)
(-0.0312439 -0.0021292 0)
(-0.0303051 -0.00234275 0)
(-0.0292796 -0.00254291 0)
(-0.0281734 -0.00272818 0)
(-0.0269929 -0.0028971 0)
(-0.0257453 -0.00304822 0)
(-0.0244382 -0.00318016 0)
(-0.0230799 -0.00329156 0)
(-0.021679 -0.00338115 0)
(-0.020245 -0.00344773 0)
(-0.0187873 -0.00349018 0)
(-0.0173162 -0.00350749 0)
(-0.0158421 -0.00349878 0)
(-0.0143757 -0.00346332 0)
(-0.0129279 -0.00340053 0)
(-0.01151 -0.00331004 0)
(-0.010133 -0.00319169 0)
(-0.00880791 -0.00304559 0)
(-0.00754572 -0.0028722 0)
(-0.00635691 -0.00267233 0)
(-0.00525147 -0.00244729 0)
(-0.00423863 -0.002199 0)
(-0.00332664 -0.00193013 0)
(-0.00252241 -0.00164436 0)
(-0.00183116 -0.00134666 0)
(-0.00125598 -0.00104376 0)
(-0.000797276 -0.00074469 0)
(-0.000452174 -0.000461598 0)
(-0.00021384 -0.00021079 0)
(-7.06177e-05 -1.38747e-05 0)
(-5.2391e-06 0.000100721 0)
(5.25948e-06 9.31262e-05 0)
(-2.66715e-06 -7.37564e-05 0)
(-5.09302e-05 -7.36282e-06 0)
(-0.000191876 0.000205456 0)
(-0.000438736 0.000516321 0)
(-0.000803624 0.000890292 0)
(-0.00129554 0.00130045 0)
(-0.00191898 0.00172622 0)
(-0.00267466 0.0021521 0)
(-0.00356025 0.00256649 0)
(-0.00457085 0.0029608 0)
(-0.00569953 0.00332871 0)
(-0.0069377 0.00366567 0)
(-0.00827554 0.00396848 0)
(-0.00970229 0.004235 0)
(-0.0112065 0.00446387 0)
(-0.0127763 0.00465442 0)
(-0.0143994 0.00480644 0)
(-0.0160638 0.00492013 0)
(-0.017757 0.00499601 0)
(-0.019467 0.00503485 0)
(-0.0211819 0.00503762 0)
(-0.0228899 0.00500546 0)
(-0.0245799 0.00493963 0)
(-0.0262409 0.0048415 0)
(-0.0278623 0.00471252 0)
(-0.0294343 0.00455422 0)
(-0.0309472 0.00436817 0)
(-0.0323921 0.00415601 0)
(-0.0337605 0.00391941 0)
(-0.0350445 0.00366008 0)
(-0.0362367 0.00337974 0)
(-0.0373303 0.00308017 0)
(-0.0383193 0.00276316 0)
(-0.039198 0.00243055 0)
(-0.0399615 0.00208417 0)
(-0.0406056 0.0017259 0)
(-0.0411265 0.00135767 0)
(-0.0415212 0.000981407 0)
(-0.0417874 0.00059908 0)
(-0.0419235 0.000212693 0)
(-0.0419284 -0.000175723 0)
(-0.0418019 -0.000564105 0)
(-0.0415443 -0.00095036 0)
(-0.0411568 -0.00133237 0)
(-0.0406411 -0.00170799 0)
(-0.0399999 -0.00207505 0)
(-0.0392365 -0.00243138 0)
(-0.0383547 -0.00277477 0)
(-0.0373595 -0.00310305 0)
(-0.0362562 -0.00341401 0)
(-0.035051 -0.00370547 0)
(-0.0337509 -0.0039753 0)
(-0.0323634 -0.00422137 0)
(-0.0308967 -0.00444161 0)
(-0.02936 -0.00463402 0)
(-0.0277627 -0.00479669 0)
(-0.0261149 -0.00492779 0)
(-0.0244275 -0.0050256 0)
(-0.0227115 -0.00508857 0)
(-0.0209789 -0.00511528 0)
(-0.0192415 -0.00510452 0)
(-0.0175117 -0.00505527 0)
(-0.0158023 -0.0049668 0)
(-0.0141259 -0.00483863 0)
(-0.0124953 -0.00467065 0)
(-0.0109231 -0.00446314 0)
(-0.00942177 -0.00421685 0)
(-0.00800317 -0.00393311 0)
(-0.00667865 -0.00361393 0)
(-0.00545862 -0.00326218 0)
(-0.00435238 -0.00288178 0)
(-0.00336775 -0.002478 0)
(-0.00251074 -0.00205782 0)
(-0.00178509 -0.00163042 0)
(-0.00119188 -0.00120786 0)
(-0.000728974 -0.000805852 0)
(-0.000390449 -0.000444926 0)
(-0.000165873 -0.000151534 0)
(-4.13311e-05 4.0387e-05 0)
(-1.09784e-06 8.43052e-05 0)
(-9.44457e-06 -4.00993e-05 0)
(-9.05908e-05 0.00011627 0)
(-0.0002976 0.000437558 0)
(-0.000634849 0.000870891 0)
(-0.00110985 0.001377 0)
(-0.00172946 0.00192489 0)
(-0.0024965 0.00249031 0)
(-0.00341031 0.00305452 0)
(-0.00446745 0.00360318 0)
(-0.00566202 0.0041254 0)
(-0.00698613 0.00461299 0)
(-0.00843021 0.00505992 0)
(-0.00998337 0.00546186 0)
(-0.0116337 0.0058158 0)
(-0.0133687 0.0061198 0)
(-0.0151751 0.00637277 0)
(-0.0170395 0.00657431 0)
(-0.0189482 0.00672454 0)
(-0.0208877 0.00682404 0)
(-0.0228445 0.00687373 0)
(-0.0248051 0.00687484 0)
(-0.0267566 0.00682882 0)
(-0.0286863 0.0067373 0)
(-0.030582 0.00660208 0)
(-0.0324318 0.00642508 0)
(-0.0342246 0.00620834 0)
(-0.0359495 0.00595397 0)
(-0.0375963 0.00566415 0)
(-0.0391556 0.00534114 0)
(-0.0406184 0.00498723 0)
(-0.0419764 0.0046048 0)
(-0.0432219 0.00419622 0)
(-0.044348 0.00376395 0)
(-0.0453484 0.00331047 0)
(-0.0462176 0.00283829 0)
(-0.0469506 0.00234997 0)
(-0.0475433 0.00184812 0)
(-0.0479923 0.00133539 0)
(-0.0482951 0.000814447 0)
(-0.0484496 0.000288031 0)
(-0.0484549 -0.000241095 0)
(-0.0483105 -0.000770122 0)
(-0.048017 -0.0012962 0)
(-0.0475757 -0.00181646 0)
(-0.0469885 -0.00232797 0)
(-0.0462584 -0.0028278 0)
(-0.0453892 -0.003313 0)
(-0.0443854 -0.00378059 0)
(-0.0432522 -0.00422759 0)
(-0.041996 -0.00465106 0)
(-0.0406238 -0.00504804 0)
(-0.0391432 -0.00541564 0)
(-0.0375629 -0.00575101 0)
(-0.0358922 -0.00605136 0)
(-0.0341412 -0.00631403 0)
(-0.0323206 -0.00653642 0)
(-0.0304419 -0.00671612 0)
(-0.0285171 -0.00685085 0)
(-0.0265588 -0.00693854 0)
(-0.0245801 -0.00697734 0)
(-0.0225946 -0.00696568 0)
(-0.020616 -0.00690226 0)
(-0.0186584 -0.00678616 0)
(-0.0167361 -0.00661685 0)
(-0.0148632 -0.00639428 0)
(-0.0130538 -0.00611895 0)
(-0.0113215 -0.00579199 0)
(-0.00967973 -0.00541531 0)
(-0.00814082 -0.00499173 0)
(-0.00671638 -0.00452517 0)
(-0.00541671 -0.00402092 0)
(-0.0042506 -0.00348594 0)
(-0.00322495 -0.00292928 0)
(-0.00234445 -0.00236258 0)
(-0.00161116 -0.00180079 0)
(-0.0010242 -0.00126299 0)
(-0.000579119 -0.000773453 0)
(-0.000267403 -0.000362761 0)
(-7.93714e-05 -6.92322e-05 0)
(-7.59398e-06 5.60013e-05 0)
(-1.60546e-05 1.41875e-05 0)
(-0.000130438 0.000293203 0)
(-0.000405183 0.00074954 0)
(-0.00083554 0.00132757 0)
(-0.00142398 0.00198485 0)
(-0.00217477 0.00268715 0)
(-0.0030886 0.00340709 0)
(-0.00416306 0.00412308 0)
(-0.00539325 0.00481825 0)
(-0.00677209 0.00547955 0)
(-0.00829054 0.00609696 0)
(-0.00993797 0.00666298 0)
(-0.0117024 0.0071721 0)
(-0.013571 0.0076204 0)
(-0.0155298 0.0080053 0)
(-0.0175648 0.00832527 0)
(-0.0196611 0.00857964 0)
(-0.021804 0.00876844 0)
(-0.0239786 0.00889229 0)
(-0.0261702 0.00895226 0)
(-0.0283642 0.00894982 0)
(-0.0305463 0.00888675 0)
(-0.0327027 0.00876508 0)
(-0.0348199 0.00858706 0)
(-0.0368849 0.00835514 0)
(-0.0388854 0.00807187 0)
(-0.0408094 0.00773997 0)
(-0.0426459 0.00736222 0)
(-0.0443843 0.00694154 0)
(-0.0460147 0.00648087 0)
(-0.047528 0.00598327 0)
(-0.0489157 0.00545182 0)
(-0.0501701 0.00488969 0)
(-0.0512844 0.0043001 0)
(-0.0522523 0.0036863 0)
(-0.0530685 0.00305163 0)
(-0.0537284 0.00239946 0)
(-0.0542283 0.00173322 0)
(-0.0545653 0.00105639 0)
(-0.0547373 0.000372517 0)
(-0.0547431 -0.000314816 0)
(-0.0545823 -0.00100197 0)
(-0.0542555 -0.00168525 0)
(-0.0537641 -0.00236092 0)
(-0.0531104 -0.00302522 0)
(-0.0522976 -0.00367434 0)
(-0.0513299 -0.00430447 0)
(-0.0502121 -0.00491176 0)
(-0.0489504 -0.00549237 0)
(-0.0475514 -0.0060425 0)
(-0.0460229 -0.00655836 0)
(-0.0443735 -0.00703622 0)
(-0.0426126 -0.0074724 0)
(-0.0407505 -0.00786337 0)
(-0.0387983 -0.00820567 0)
(-0.0367678 -0.00849603 0)
(-0.0346716 -0.00873134 0)
(-0.0325229 -0.00890873 0)
(-0.0303354 -0.00902558 0)
(-0.0281237 -0.00907956 0)
(-0.0259024 -0.00906872 0)
(-0.0236867 -0.00899148 0)
(-0.021492 -0.00884674 0)
(-0.0193338 -0.00863391 0)
(-0.0172276 -0.00835304 0)
(-0.0151887 -0.00800487 0)
(-0.013232 -0.00759098 0)
(-0.011372 -0.00711391 0)
(-0.00962226 -0.00657735 0)
(-0.00799545 -0.00598635 0)
(-0.00650296 -0.00534761 0)
(-0.0051546 -0.00466979 0)
(-0.00395836 -0.00396398 0)
(-0.00292008 -0.00324422 0)
(-0.00204314 -0.00252814 0)
(-0.00132829 -0.00183784 0)
(-0.000773016 -0.00120084 0)
(-0.000371168 -0.000651082 0)
(-0.000117752 -0.000230168 0)
(-1.39524e-05 7.85792e-06 0)
(-2.23872e-05 8.88055e-05 0)
(-0.000169623 0.000523729 0)
(-0.000512235 0.00114257 0)
(-0.00103651 0.00188825 0)
(-0.00173975 0.00271616 0)
(-0.00262336 0.00358958 0)
(-0.00368559 0.0044786 0)
(-0.00492197 0.00535919 0)
(-0.00632592 0.00621226 0)
(-0.00788891 0.00702274 0)
(-0.00960064 0.00777893 0)
(-0.0114493 0.00847189 0)
(-0.0134218 0.00909494 0)
(-0.0155042 0.00964329 0)
(-0.0176815 0.0101137 0)
(-0.0199384 0.0105041 0)
(-0.0222592 0.0108136 0)
(-0.0246279 0.0110422 0)
(-0.0270285 0.0111903 0)
(-0.0294452 0.0112594 0)
(-0.0318623 0.011251 0)
(-0.0342644 0.0111674 0)
(-0.0366365 0.0110109 0)
(-0.0389641 0.0107843 0)
(-0.0412332 0.0104906 0)
(-0.0434304 0.0101329 0)
(-0.0455428 0.00971459 0)
(-0.0475585 0.00923907 0)
(-0.0494659 0.00870996 0)
(-0.0512543 0.00813095 0)
(-0.0529139 0.00750581 0)
(-0.0544356 0.00683841 0)
(-0.0558109 0.00613269 0)
(-0.0570323 0.00539266 0)
(-0.0580932 0.00462243 0)
(-0.0589878 0.00382613 0)
(-0.0597111 0.00300799 0)
(-0.060259 0.00217231 0)
(-0.0606284 0.00132345 0)
(-0.0608171 0.000465824 0)
(-0.0608237 -0.000396071 0)
(-0.0606479 -0.00125768 0)
(-0.0602903 -0.00211441 0)
(-0.0597523 -0.00296158 0)
(-0.0590365 -0.00379449 0)
(-0.0581464 -0.00460839 0)
(-0.0570864 -0.00539853 0)
(-0.055862 -0.00616011 0)
(-0.0544796 -0.00688837 0)
(-0.0529466 -0.00757856 0)
(-0.0512713 -0.00822597 0)
(-0.049463 -0.00882597 0)
(-0.047532 -0.00937402 0)
(-0.0454893 -0.00986571 0)
(-0.043347 -0.0102968 0)
(-0.0411178 -0.0106632 0)
(-0.0388153 -0.0109611 0)
(-0.0364538 -0.0111871 0)
(-0.0340482 -0.0113378 0)
(-0.031614 -0.0114105 0)
(-0.0291671 -0.0114027 0)
(-0.0267238 -0.0113127 0)
(-0.0243008 -0.0111391 0)
(-0.0219148 -0.0108813 0)
(-0.0195823 -0.0105395 0)
(-0.0173199 -0.0101146 0)
(-0.0151437 -0.00960878 0)
(-0.0130693 -0.00902516 0)
(-0.0111114 -0.00836834 0)
(-0.00928385 -0.00764453 0)
(-0.00759905 -0.00686183 0)
(-0.00606803 -0.00603057 0)
(-0.00470002 -0.00516381 0)
(-0.00350223 -0.00427779 0)
(-0.00247964 -0.00339263 0)
(-0.00163491 -0.00253304 0)
(-0.000967774 -0.00172927 0)
(-0.000474721 -0.0010179 0)
(-0.00015559 -0.000442887 0)
(-2.00523e-05 -5.98998e-05 0)
(-2.84083e-05 0.000183181 0)
(-0.000207719 0.000807224 0)
(-0.000617393 0.00161644 0)
(-0.00123514 0.00255324 0)
(-0.00205316 0.00357162 0)
(-0.00306987 0.00463307 0)
(-0.00428089 0.00570568 0)
(-0.00567949 0.0067634 0)
(-0.0072572 0.00778522 0)
(-0.00900386 0.0087543 0)
(-0.0109077 0.00965739 0)
(-0.0129558 0.0104842 0)
(-0.0151336 0.011227 0)
(-0.0174262 0.0118801 0)
(-0.0198176 0.0124396 0)
(-0.0222913 0.012903 0)
(-0.0248305 0.0132692 0)
(-0.0274182 0.0135378 0)
(-0.0300374 0.0137097 0)
(-0.0326713 0.0137861 0)
(-0.035303 0.013769 0)
(-0.0379162 0.013661 0)
(-0.0404949 0.0134648 0)
(-0.0430237 0.0131838 0)
(-0.0454876 0.0128214 0)
(-0.0478722 0.0123815 0)
(-0.050164 0.0118681 0)
(-0.05235 0.0112853 0)
(-0.0544179 0.0106374 0)
(-0.0563564 0.00992899 0)
(-0.0581548 0.00916454 0)
(-0.0598034 0.00834876 0)
(-0.0612932 0.00748645 0)
(-0.0626162 0.00658248 0)
(-0.0637653 0.00564181 0)
(-0.0647342 0.0046695 0)
(-0.0655177 0.00367069 0)
(-0.0661113 0.00265059 0)
(-0.0665117 0.00161451 0)
(-0.0667166 0.000567823 0)
(-0.0667245 -0.000484005 0)
(-0.0665349 -0.00153545 0)
(-0.0661486 -0.0025809 0)
(-0.0655672 -0.0036147 0)
(-0.0647933 -0.00463113 0)
(-0.0638307 -0.00562444 0)
(-0.0626841 -0.00658886 0)
(-0.0613593 -0.00751858 0)
(-0.0598633 -0.00840782 0)
(-0.0582038 -0.00925083 0)
(-0.0563898 -0.0100419 0)
(-0.0544312 -0.0107755 0)
(-0.0523389 -0.0114461 0)
(-0.0501249 -0.0120484 0)
(-0.0478018 -0.0125772 0)
(-0.0453833 -0.0130277 0)
(-0.0428839 -0.0133954 0)
(-0.0403188 -0.0136759 0)
(-0.037704 -0.0138655 0)
(-0.0350559 -0.0139608 0)
(-0.0323916 -0.0139589 0)
(-0.0297285 -0.0138578 0)
(-0.0270841 -0.0136559 0)
(-0.0244765 -0.0133525 0)
(-0.0219233 -0.0129479 0)
(-0.0194421 -0.0124435 0)
(-0.0170502 -0.0118416 0)
(-0.0147643 -0.0111463 0)
(-0.0126003 -0.0103629 0)
(-0.0105732 -0.00949879 0)
(-0.00869658 -0.00856345 0)
(-0.00698281 -0.00756882 0)
(-0.00544249 -0.00652977 0)
(-0.00408439 -0.00546458 0)
(-0.00291531 -0.00439553 0)
(-0.00194003 -0.00334963 0)
(-0.00116074 -0.00235932 0)
(-0.000576663 -0.00146323 0)
(-0.000192435 -0.000706912 0)
(-2.58539e-05 -0.00014675 0)
(-3.41211e-05 0.000296625 0)
(-0.000244545 0.00114257 0)
(-0.000719952 0.0021701 0)
(-0.00142995 0.00332177 0)
(-0.00236182 0.0045508 0)
(-0.00351095 0.00581742 0)
(-0.00487028 0.0070882 0)
(-0.00643066 0.00833549 0)
(-0.00818157 0.00953664 0)
(-0.0101111 0.0106733 0)
(-0.0122059 0.0117309 0)
(-0.0144516 0.0126978 0)
(-0.0168325 0.0135655 0)
(-0.0193324 0.0143273 0)
(-0.0219342 0.0149787 0)
(-0.0246204 0.015517 0)
(-0.0273731 0.0159406 0)
(-0.0301744 0.0162492 0)
(-0.0330062 0.0164434 0)
(-0.0358506 0.016525 0)
(-0.03869 0.016496 0)
(-0.0415071 0.0163594 0)
(-0.044285 0.0161185 0)
(-0.0470073 0.015777 0)
(-0.0496582 0.0153392 0)
(-0.0522227 0.0148094 0)
(-0.0546862 0.0141924 0)
(-0.057035 0.013493 0)
(-0.0592564 0.0127164 0)
(-0.0613381 0.0118679 0)
(-0.063269 0.0109528 0)
(-0.0650387 0.00997683 0)
(-0.0666378 0.00894555 0)
(-0.0680577 0.00786478 0)
(-0.0692909 0.00674042 0)
(-0.0703308 0.00557849 0)
(-0.0711718 0.00438508 0)
(-0.0718094 0.00316641 0)
(-0.0722398 0.00192877 0)
(-0.0724606 0.000678563 0)
(-0.0724702 -0.000577719 0)
(-0.0722683 -0.00183351 0)
(-0.0718555 -0.00308214 0)
(-0.0712334 -0.0043169 0)
(-0.070405 -0.00553101 0)
(-0.0693742 -0.00671763 0)
(-0.0681459 -0.0078699 0)
(-0.0667263 -0.00898096 0)
(-0.0651226 -0.0100439 0)
(-0.0633432 -0.0110521 0)
(-0.0613975 -0.0119986 0)
(-0.0592959 -0.0128768 0)
(-0.0570499 -0.0136804 0)
(-0.0546722 -0.0144029 0)
(-0.0521762 -0.0150384 0)
(-0.0495763 -0.0155811 0)
(-0.0468877 -0.0160256 0)
(-0.0441267 -0.016367 0)
(-0.04131 -0.0166007 0)
(-0.0384551 -0.0167229 0)
(-0.0355799 -0.0167303 0)
(-0.0327029 -0.0166202 0)
(-0.0298428 -0.0163911 0)
(-0.0270184 -0.0160423 0)
(-0.0242486 -0.0155739 0)
(-0.0215522 -0.0149877 0)
(-0.0189475 -0.0142866 0)
(-0.0164523 -0.0134751 0)
(-0.0140837 -0.0125595 0)
(-0.011858 -0.0115483 0)
(-0.00979008 -0.0104522 0)
(-0.0078937 -0.00928467 0)
(-0.006181 -0.0080622 0)
(-0.00466247 -0.00680494 0)
(-0.00334689 -0.00553708 0)
(-0.0022413 -0.00428753 0)
(-0.00135042 -0.00309054 0)
(-0.000676276 -0.00198626 0)
(-0.000228099 -0.00102125 0)
(-3.13577e-05 -0.000252047 0)
(-3.95471e-05 0.000428422 0)
(-0.00028007 0.00152839 0)
(-0.000819623 0.00280206 0)
(-0.00162022 0.00419247 0)
(-0.00266443 0.00565253 0)
(-0.00394472 0.00714167 0)
(-0.00545127 0.00862536 0)
(-0.00717246 0.0100747 0)
(-0.00909561 0.0114656 0)
(-0.0112069 0.0127786 0)
(-0.0134914 0.0139979 0)
(-0.0159331 0.0151109 0)
(-0.0185151 0.0161079 0)
(-0.0212199 0.0169819 0)
(-0.0240292 0.0177276 0)
(-0.0269245 0.018342 0)
(-0.0298867 0.0188232 0)
(-0.0328971 0.0191709 0)
(-0.0359365 0.019386 0)
(-0.0389862 0.01947 0)
(-0.0420277 0.0194256 0)
(-0.0450427 0.019256 0)
(-0.0480135 0.018965 0)
(-0.050923 0.0185571 0)
(-0.0537546 0.0180368 0)
(-0.0564924 0.0174095 0)
(-0.0591214 0.0166805 0)
(-0.061627 0.0158555 0)
(-0.0639958 0.0149405 0)
(-0.0662152 0.0139416 0)
(-0.0682733 0.0128652 0)
(-0.0701592 0.0117176 0)
(-0.0718631 0.0105055 0)
(-0.0733761 0.00923563 0)
(-0.0746901 0.00791496 0)
(-0.0757984 0.00655045 0)
(-0.0766949 0.00514922 0)
(-0.0773749 0.00371852 0)
(-0.0778346 0.00226572 0)
(-0.0780712 0.000798267 0)
(-0.0780833 -0.000676259 0)
(-0.0778703 -0.00215019 0)
(-0.0774329 -0.00361576 0)
(-0.0767729 -0.00506514 0)
(-0.0758932 -0.00649041 0)
(-0.074798 -0.00788362 0)
(-0.0734923 -0.00923676 0)
(-0.0719828 -0.0105419 0)
(-0.0702768 -0.0117909 0)
(-0.0683832 -0.012976 0)
(-0.0663117 -0.0140893 0)
(-0.0640734 -0.0151231 0)
(-0.0616802 -0.0160698 0)
(-0.0591454 -0.0169222 0)
(-0.056483 -0.0176732 0)
(-0.0537082 -0.0183162 0)
(-0.0508369 -0.018845 0)
(-0.0478861 -0.0192537 0)
(-0.0448735 -0.0195372 0)
(-0.0418173 -0.0196909 0)
(-0.0387365 -0.0197111 0)
(-0.0356504 -0.019595 0)
(-0.0325787 -0.0193404 0)
(-0.0295413 -0.0189467 0)
(-0.0265582 -0.0184141 0)
(-0.0236492 -0.0177447 0)
(-0.0208337 -0.0169416 0)
(-0.0181307 -0.01601 0)
(-0.0155587 -0.0149572 0)
(-0.0131351 -0.0137925 0)
(-0.0108764 -0.0125278 0)
(-0.00879767 -0.0111779 0)
(-0.00691283 -0.00976096 0)
(-0.0052342 -0.00829865 0)
(-0.00377263 -0.00681683 0)
(-0.00253751 -0.005346 0)
(-0.00153615 -0.00392188 0)
(-0.000773287 -0.00258571 0)
(-0.000262551 -0.00138469 0)
(-3.65847e-05 -0.000375113 0)
(-4.47157e-05 0.000577878 0)
(-0.000314345 0.00196326 0)
(-0.000916388 0.00351056 0)
(-0.00180572 0.00516357 0)
(-0.00296049 0.00687521 0)
(-0.00437031 0.00860442 0)
(-0.00602263 0.0103159 0)
(-0.00790332 0.0119798 0)
(-0.00999748 0.0135711 0)
(-0.0122893 0.0150691 0)
(-0.0147621 0.0164571 0)
(-0.0173984 0.0177216 0)
(-0.0201797 0.0188523 0)
(-0.0230873 0.0198414 0)
(-0.0261017 0.0206833 0)
(-0.0292032 0.0213746 0)
(-0.0323718 0.0219132 0)
(-0.0355876 0.022299 0)
(-0.0388307 0.0225326 0)
(-0.0420814 0.0226162 0)
(-0.0453203 0.0225525 0)
(-0.0485283 0.0223453 0)
(-0.051687 0.0219988 0)
(-0.0547785 0.0215182 0)
(-0.0577855 0.0209086 0)
(-0.0606915 0.0201762 0)
(-0.0634806 0.0193269 0)
(-0.0661379 0.0183675 0)
(-0.0686493 0.0173046 0)
(-0.0710015 0.0161453 0)
(-0.0731824 0.0148969 0)
(-0.0751806 0.0135667 0)
(-0.0769858 0.0121625 0)
(-0.0785886 0.0106918 0)
(-0.0799809 0.00916274 0)
(-0.0811553 0.00758327 0)
(-0.0821057 0.0059616 0)
(-0.0828272 0.00430606 0)
(-0.0833157 0.0026251 0)
(-0.0835684 0.000927312 0)
(-0.0835836 -0.000778616 0)
(-0.0833609 -0.00248387 0)
(-0.0829009 -0.00417953 0)
(-0.0822053 -0.00585659 0)
(-0.0812774 -0.00750597 0)
(-0.0801211 -0.00911853 0)
(-0.0787421 -0.0106851 0)
(-0.0771469 -0.0121965 0)
(-0.0753433 -0.0136435 0)
(-0.0733404 -0.0150172 0)
(-0.0711484 -0.0163084 0)
(-0.0687787 -0.0175083 0)
(-0.0662438 -0.0186084 0)
(-0.0635574 -0.0196002 0)
(-0.0607341 -0.0204757 0)
(-0.0577898 -0.0212272 0)
(-0.0547411 -0.0218477 0)
(-0.0516056 -0.0223305 0)
(-0.0484018 -0.0226696 0)
(-0.0451489 -0.02286 0)
(-0.0418665 -0.0228972 0)
(-0.0385749 -0.022778 0)
(-0.0352949 -0.0225002 0)
(-0.0320473 -0.0220628 0)
(-0.0288532 -0.0214661 0)
(-0.0257333 -0.0207123 0)
(-0.0227085 -0.019805 0)
(-0.0197989 -0.01875 0)
(-0.0170242 -0.0175551 0)
(-0.0144033 -0.0162307 0)
(-0.0119541 -0.0147897 0)
(-0.00969339 -0.0132482 0)
(-0.00763681 -0.0116256 0)
(-0.00579864 -0.00994511 0)
(-0.00419186 -0.00823392 0)
(-0.00282828 -0.00652391 0)
(-0.00171777 -0.00485195 0)
(-0.000867709 -0.0032601 0)
(-0.000295853 -0.00179593 0)
(-4.1565e-05 -0.000515301 0)
(-4.96594e-05 0.000744354 0)
(-0.000347471 0.00244575 0)
(-0.00101039 0.00429383 0)
(-0.00198659 0.00623322 0)
(-0.00325002 0.00821702 0)
(-0.00478757 0.010204 0)
(-0.00658402 0.0121583 0)
(-0.00862273 0.0140495 0)
(-0.0108865 0.0158516 0)
(-0.0133576 0.0175433 0)
(-0.0160174 0.019107 0)
(-0.0188468 0.0205285 0)
(-0.0218259 0.0217969 0)
(-0.0249345 0.0229038 0)
(-0.0281519 0.0238435 0)
(-0.0314573 0.0246121 0)
(-0.0348296 0.0252077 0)
(-0.038248 0.0256299 0)
(-0.0416916 0.0258798 0)
(-0.0451397 0.0259596 0)
(-0.0485723 0.0258725 0)
(-0.0519694 0.0256228 0)
(-0.0553118 0.0252153 0)
(-0.0585811 0.0246556 0)
(-0.0617591 0.0239498 0)
(-0.0648288 0.0231046 0)
(-0.0677738 0.0221269 0)
(-0.0705785 0.0210243 0)
(-0.0732284 0.0198042 0)
(-0.0757097 0.0184748 0)
(-0.0780099 0.0170443 0)
(-0.080117 0.0155209 0)
(-0.0820205 0.0139135 0)
(-0.0837106 0.0122307 0)
(-0.0851789 0.0104816 0)
(-0.0864179 0.00867533 0)
(-0.0874211 0.00682112 0)
(-0.0881833 0.00492845 0)
(-0.0887004 0.0030069 0)
(-0.0889695 0.00106623 0)
(-0.0889887 -0.000883719 0)
(-0.0887576 -0.00283294 0)
(-0.0882768 -0.00477131 0)
(-0.0875481 -0.00668864 0)
(-0.0865746 -0.00857462 0)
(-0.0853606 -0.0104189 0)
(-0.0839116 -0.012211 0)
(-0.0822346 -0.0139407 0)
(-0.0803376 -0.0155974 0)
(-0.0782298 -0.0171709 0)
(-0.0759218 -0.018651 0)
(-0.0734254 -0.0200277 0)