/*--------------------------------*- C++ -*----------------------------------*\
  =========                 |
  \\      /  F ield         | OpenFOAM: The Open Source CFD Toolbox
   \\    /   O peration     | Website:  https://openfoam.org
    \\  /    A nd           | Version:  7
     \\/     M anipulation  |
\*---------------------------------------------------------------------------*/
FoamFile
{
    version     2.0;
    format      ascii;
    class       surfaceScalarField;
    location    "0.4625";
    object      phi;
}
// * * * * * * * * * * * * * * * * * * * * * * * * * * * * * * * * * * * * * //

dimensions      [0 3 -1 0 0 0 0];

internalField   nonuniform List<scalar> 
50880
(
5.90881e-12
-6.31716e-12
3.61727e-11
-3.02642e-11
8.10985e-11
-4.49235e-11
1.30762e-10
-4.96563e-11
1.7803e-10
-4.72627e-11
2.17924e-10
-3.98952e-11
2.47017e-10
-2.90966e-11
2.62999e-10
-1.59818e-11
2.64341e-10
-1.34148e-12
2.50077e-10
1.42645e-11
2.19647e-10
3.04306e-11
1.72791e-10
4.68572e-11
1.09468e-10
6.33213e-11
2.98138e-11
7.96536e-11
-6.59091e-11
9.57233e-11
-1.77337e-10
1.11429e-10
-3.04026e-10
1.26692e-10
-4.45475e-10
1.41451e-10
-6.01136e-10
1.55659e-10
-7.7042e-10
1.69282e-10
-9.52712e-10
1.82291e-10
-1.14737e-09
1.94663e-10
-1.35376e-09
2.06383e-10
-1.5712e-09
2.1744e-10
-1.79902e-09
2.27827e-10
-2.03656e-09
2.37539e-10
-2.28314e-09
2.46577e-10
-2.53808e-09
2.54939e-10
-2.80071e-09
2.62629e-10
-3.07036e-09
2.6965e-10
-3.34637e-09
2.76007e-10
-3.62808e-09
2.81709e-10
-3.91484e-09
2.86761e-10
-4.20601e-09
2.91173e-10
-4.50097e-09
2.94953e-10
-4.79908e-09
2.9811e-10
-5.09973e-09
3.00657e-10
-5.40234e-09
3.02602e-10
-5.70629e-09
3.03957e-10
-6.01103e-09
3.04733e-10
-6.31597e-09
3.04942e-10
-6.62057e-09
3.04596e-10
-6.92427e-09
3.03707e-10
-7.22656e-09
3.02287e-10
-7.52691e-09
3.00349e-10
-7.82482e-09
2.97905e-10
-8.11978e-09
2.94967e-10
-8.41134e-09
2.9155e-10
-8.699e-09
2.87665e-10
-8.98233e-09
2.83325e-10
-9.26087e-09
2.78544e-10
-9.53421e-09
2.73334e-10
-9.80192e-09
2.67708e-10
-1.00636e-08
2.6168e-10
-1.03189e-08
2.55262e-10
-1.05673e-08
2.48468e-10
-1.08086e-08
2.41311e-10
-1.10424e-08
2.33804e-10
-1.12684e-08
2.2596e-10
-1.14862e-08
2.17793e-10
-1.16955e-08
2.09316e-10
-1.18961e-08
2.00542e-10
-1.20875e-08
1.91485e-10
-1.22697e-08
1.82158e-10
-1.24423e-08
1.72574e-10
-1.2605e-08
1.62749e-10
-1.27577e-08
1.52694e-10
-1.29001e-08
1.42424e-10
-1.30321e-08
1.31952e-10
-1.31534e-08
1.21293e-10
-1.32638e-08
1.1046e-10
-1.33633e-08
9.94679e-11
-1.34516e-08
8.83305e-11
-1.35287e-08
7.70623e-11
-1.35944e-08
6.56777e-11
-1.36486e-08
5.41914e-11
-1.36912e-08
4.2618e-11
-1.37222e-08
3.09723e-11
-1.37414e-08
1.92692e-11
-1.3749e-08
7.52405e-12
-1.37447e-08
-4.24808e-12
-1.37287e-08
-1.60318e-11
-1.37009e-08
-2.78115e-11
-1.36613e-08
-3.95716e-11
-1.361e-08
-5.12963e-11
-1.3547e-08
-6.29695e-11
-1.34725e-08
-7.45752e-11
-1.33864e-08
-8.60972e-11
-1.32889e-08
-9.75191e-11
-1.318e-08
-1.08824e-10
-1.306e-08
-1.19997e-10
-1.2929e-08
-1.31019e-10
-1.27871e-08
-1.41875e-10
-1.26346e-08
-1.52547e-10
-1.24716e-08
-1.63019e-10
-1.22983e-08
-1.73274e-10
-1.2115e-08
-1.83294e-10
-1.19219e-08
-1.93063e-10
-1.17194e-08
-2.02563e-10
-1.15076e-08
-2.11777e-10
-1.12869e-08
-2.20689e-10
-1.10576e-08
-2.29281e-10
-1.08201e-08
-2.37536e-10
-1.05747e-08
-2.45437e-10
-1.03217e-08
-2.52968e-10
-1.00616e-08
-2.60112e-10
-9.79473e-09
-2.66851e-10
-9.52156e-09
-2.73171e-10
-9.24251e-09
-2.79055e-10
-8.95802e-09
-2.84486e-10
-8.66857e-09
-2.89449e-10
-8.37464e-09
-2.93929e-10
-8.07673e-09
-2.97911e-10
-7.77535e-09
-3.01379e-10
-7.47103e-09
-3.0432e-10
-7.16431e-09
-3.06719e-10
-6.85575e-09
-3.08563e-10
-6.54591e-09
-3.09839e-10
-6.23537e-09
-3.10535e-10
-5.92474e-09
-3.10638e-10
-5.6146e-09
-3.10136e-10
-5.30558e-09
-3.0902e-10
-4.9983e-09
-3.07278e-10
-4.6934e-09
-3.04902e-10
-4.39152e-09
-3.01883e-10
-4.0933e-09
-2.98213e-10
-3.79942e-09
-2.93886e-10
-3.51052e-09
-2.88894e-10
-3.22729e-09
-2.83234e-10
-2.95039e-09
-2.76902e-10
-2.68049e-09
-2.69894e-10
-2.41828e-09
-2.62211e-10
-2.16443e-09
-2.53852e-10
-1.91961e-09
-2.4482e-10
-1.68449e-09
-2.35118e-10
-1.45974e-09
-2.24752e-10
-1.24601e-09
-2.13731e-10
-1.04394e-09
-2.02067e-10
-8.54167e-10
-1.89775e-10
-6.77293e-10
-1.76874e-10
-5.13908e-10
-1.63387e-10
-3.64568e-10
-1.49342e-10
-2.29793e-10
-1.34776e-10
-1.10057e-10
-1.19735e-10
-5.78315e-12
-1.04274e-10
8.26775e-11
-8.8462e-11
1.55059e-10
-7.23838e-11
2.11206e-10
-5.61478e-11
2.51099e-10
-3.98926e-11
2.74895e-10
-2.37954e-11
2.82981e-10
-8.0857e-12
2.76046e-10
6.93354e-12
2.55191e-10
2.08547e-11
2.22072e-10
3.3119e-11
1.79125e-10
4.29465e-11
1.29877e-10
4.92474e-11
7.93477e-11
5.05284e-11
3.46096e-11
4.4738e-11
5.32008e-12
2.92913e-11
5.32227e-12
3.00451e-11
-3.63608e-11
1.01194e-10
-1.01417e-10
1.95479e-10
-1.39217e-10
2.95838e-10
-1.50019e-10
3.87913e-10
-1.39332e-10
4.6046e-10
-1.12436e-10
5.05014e-10
-7.36509e-11
5.1539e-10
-2.63605e-11
4.87197e-10
2.685e-11
4.17432e-10
8.40282e-11
3.04173e-10
1.4369e-10
1.46335e-10
2.04699e-10
-5.65197e-11
2.66178e-10
-3.04315e-10
3.27449e-10
-5.96572e-10
3.87979e-10
-9.32495e-10
4.4735e-10
-1.31103e-09
5.05231e-10
-1.73094e-09
5.61357e-10
-2.19079e-09
6.15521e-10
-2.68907e-09
6.67561e-10
-3.22414e-09
7.17351e-10
-3.79426e-09
7.6479e-10
-4.39768e-09
8.09802e-10
-5.03258e-09
8.52331e-10
-5.69708e-09
8.92336e-10
-6.38934e-09
9.29791e-10
-7.10744e-09
9.6468e-10
-7.8495e-09
9.96997e-10
-8.61361e-09
1.02674e-09
-9.3979e-09
1.05393e-09
-1.02005e-08
1.07857e-09
-1.10194e-08
1.10069e-09
-1.1853e-08
1.1203e-09
-1.26992e-08
1.13744e-09
-1.35564e-08
1.15214e-09
-1.44228e-08
1.16443e-09
-1.52964e-08
1.17435e-09
-1.61758e-08
1.18193e-09
-1.7059e-08
1.18723e-09
-1.79446e-08
1.19027e-09
-1.88308e-08
1.19111e-09
-1.97159e-08
1.18978e-09
-2.05986e-08
1.18634e-09
-2.14771e-08
1.18082e-09
-2.235e-08
1.17329e-09
-2.32159e-08
1.16378e-09
-2.40733e-08
1.15234e-09
-2.49208e-08
1.13902e-09
-2.5757e-08
1.12388e-09
-2.65806e-08
1.10696e-09
-2.73904e-08
1.08831e-09
-2.8185e-08
1.06798e-09
-2.89633e-08
1.04602e-09
-2.97242e-08
1.02249e-09
-3.04663e-08
9.97428e-10
-3.11887e-08
9.70895e-10
-3.18904e-08
9.42938e-10
-3.25702e-08
9.1361e-10
-3.32272e-08
8.82962e-10
-3.38604e-08
8.51047e-10
-3.4469e-08
8.17916e-10
-3.50521e-08
7.83622e-10
-3.56089e-08
7.48219e-10
-3.61385e-08
7.11757e-10
-3.66402e-08
6.74292e-10
-3.71133e-08
6.35875e-10
-3.75572e-08
5.96561e-10
-3.79712e-08
5.56405e-10
-3.83547e-08
5.15459e-10
-3.87072e-08
4.73779e-10
-3.90281e-08
4.31421e-10
-3.93171e-08
3.88439e-10
-3.95737e-08
3.4489e-10
-3.97974e-08
3.0083e-10
-3.99881e-08
2.56316e-10
-4.01453e-08
2.11405e-10
-4.02688e-08
1.66156e-10
-4.03585e-08
1.20625e-10
-4.04141e-08
7.48733e-11
-4.04355e-08
2.8959e-11
-4.04227e-08
-1.70578e-11
-4.03756e-08
-6.31166e-11
-4.02943e-08
-1.09156e-10
-4.01787e-08
-1.55116e-10
-4.00291e-08
-2.00933e-10
-3.98455e-08
-2.46544e-10
-3.96282e-08
-2.91888e-10
-3.93774e-08
-3.369e-10
-3.90934e-08
-3.81516e-10
-3.87766e-08
-4.25672e-10
-3.84273e-08
-4.69302e-10
-3.80459e-08
-5.12343e-10
-3.76331e-08
-5.54728e-10
-3.71892e-08
-5.96391e-10
-3.6715e-08
-6.37267e-10
-3.6211e-08
-6.77288e-10
-3.56779e-08
-7.16389e-10
-3.51165e-08
-7.54502e-10
-3.45275e-08
-7.91562e-10
-3.39117e-08
-8.27502e-10
-3.32702e-08
-8.62255e-10
-3.26037e-08
-8.95754e-10
-3.19133e-08
-9.27935e-10
-3.12e-08
-9.58731e-10
-3.04649e-08
-9.88078e-10
-2.97091e-08
-1.01591e-09
-2.89338e-08
-1.04216e-09
-2.81402e-08
-1.06677e-09
-2.73295e-08
-1.08968e-09
-2.65032e-08
-1.11082e-09
-2.56625e-08
-1.13014e-09
-2.48089e-08
-1.14757e-09
-2.39437e-08
-1.16305e-09
-2.30686e-08
-1.17654e-09
-2.21849e-08
-1.18797e-09
-2.12943e-08
-1.19729e-09
-2.03985e-08
-1.20445e-09
-1.94989e-08
-1.2094e-09
-1.85973e-08
-1.2121e-09
-1.76955e-08
-1.21249e-09
-1.67951e-08
-1.21053e-09
-1.58979e-08
-1.20619e-09
-1.50058e-08
-1.19943e-09
-1.41205e-08
-1.19021e-09
-1.32438e-08
-1.17849e-09
-1.23778e-08
-1.16427e-09
-1.15242e-08
-1.1475e-09
-1.06849e-08
-1.12817e-09
-9.86187e-09
-1.10626e-09
-9.057e-09
-1.08177e-09
-8.27221e-09
-1.05469e-09
-7.50941e-09
-1.02501e-09
-6.77051e-09
-9.92753e-10
-6.0574e-09
-9.57922e-10
-5.37198e-09
-9.20544e-10
-4.71608e-09
-8.80649e-10
-4.09154e-09
-8.38278e-10
-3.50012e-09
-7.93488e-10
-2.94355e-09
-7.46345e-10
-2.42348e-09
-6.96938e-10
-1.9415e-09
-6.4537e-10
-1.49907e-09
-5.9177e-10
-1.09756e-09
-5.36294e-10
-7.38157e-10
-4.79137e-10
-4.21895e-10
-4.20536e-10
-1.49575e-10
-3.6078e-10
7.82694e-11
-3.00229e-10
2.61445e-10
-2.39325e-10
4.00175e-10
-1.78625e-10
4.95208e-10
-1.18829e-10
5.47951e-10
-6.08288e-11
5.60651e-10
-5.76674e-12
5.36627e-10
4.48784e-11
4.80569e-10
8.91757e-11
3.98919e-10
1.24596e-10
3.00311e-10
1.47856e-10
1.96012e-10
1.54826e-10
1.00174e-10
1.40572e-10
2.92699e-11
1.0019e-10
3.45933e-11
4.48415e-11
-8.1199e-11
1.39155e-10
-1.9572e-10
2.56438e-10
-2.565e-10
3.7506e-10
-2.68646e-10
4.76746e-10
-2.41021e-10
5.46619e-10
-1.82307e-10
5.72965e-10
-9.99949e-11
5.46826e-10
-2.21493e-13
4.61569e-10
1.12107e-10
3.1245e-10
2.33147e-10
9.62715e-11
3.59866e-10
-1.88916e-10
4.89886e-10
-5.44063e-10
6.21328e-10
-9.69315e-10
7.52703e-10
-1.46416e-09
8.8283e-10
-2.02758e-09
1.01076e-09
-2.6581e-09
1.13575e-09
-3.35393e-09
1.25718e-09
-4.11298e-09
1.37457e-09
-4.93295e-09
1.48754e-09
-5.81137e-09
1.59577e-09
-6.74559e-09
1.69901e-09
-7.73289e-09
1.7971e-09
-8.77043e-09
1.88987e-09
-9.85531e-09
1.97722e-09
-1.09846e-08
2.05907e-09
-1.21553e-08
2.13538e-09
-1.33644e-08
2.20612e-09
-1.4609e-08
2.27128e-09
-1.58859e-08
2.33087e-09
-1.71922e-08
2.38491e-09
-1.8525e-08
2.43344e-09
-1.98812e-08
2.4765e-09
-2.12579e-08
2.51415e-09
-2.26522e-08
2.54645e-09
-2.40613e-08
2.57347e-09
-2.54822e-08
2.59528e-09
-2.69122e-08
2.61197e-09
-2.83486e-08
2.62361e-09
-2.97887e-08
2.63031e-09
-3.12297e-08
2.63215e-09
-3.26691e-08
2.62922e-09
-3.41044e-08
2.62162e-09
-3.55331e-08
2.60946e-09
-3.69526e-08
2.59283e-09
-3.83607e-08
2.57184e-09
-3.97549e-08
2.5466e-09
-4.11331e-08
2.51721e-09
-4.2493e-08
2.48378e-09
-4.38325e-08
2.44641e-09
-4.51494e-08
2.40523e-09
-4.64418e-08
2.36033e-09
-4.77076e-08
2.31183e-09
-4.89449e-08
2.25984e-09
-5.0152e-08
2.20447e-09
-5.13269e-08
2.14584e-09
-5.2468e-08
2.08406e-09
-5.35737e-08
2.01924e-09
-5.46422e-08
1.9515e-09
-5.56721e-08
1.88095e-09
-5.66619e-08
1.80771e-09
-5.76102e-08
1.7319e-09
-5.85156e-08
1.65363e-09
-5.93768e-08
1.57301e-09
-6.01927e-08
1.49017e-09
-6.09621e-08
1.40523e-09
-6.16838e-08
1.3183e-09
-6.23569e-08
1.22951e-09
-6.29804e-08
1.13897e-09
-6.35535e-08
1.04681e-09
-6.40752e-08
9.53141e-10
-6.45448e-08
8.58098e-10
-6.49618e-08
7.61802e-10
-6.53253e-08
6.64378e-10
-6.56349e-08
5.65952e-10
-6.58902e-08
4.6665e-10
-6.60906e-08
3.66603e-10
-6.6236e-08
2.65938e-10
-6.63259e-08
1.64787e-10
-6.63602e-08
6.32815e-11
-6.63388e-08
-3.84458e-11
-6.62617e-08
-1.40261e-10
-6.61288e-08
-2.42028e-10
-6.59403e-08
-3.43612e-10
-6.56964e-08
-4.44874e-10
-6.53972e-08
-5.45677e-10
-6.50432e-08
-6.4588e-10
-6.46348e-08
-7.45342e-10
-6.41724e-08
-8.43923e-10
-6.36566e-08
-9.4148e-10
-6.3088e-08
-1.03787e-09
-6.24674e-08
-1.13295e-09
-6.17956e-08
-1.22656e-09
-6.10734e-08
-1.31858e-09
-6.03018e-08
-1.40885e-09
-5.94819e-08
-1.49723e-09
-5.86147e-08
-1.58356e-09
-5.77015e-08
-1.6677e-09
-5.67435e-08
-1.74952e-09
-5.57422e-08
-1.82884e-09
-5.46989e-08
-1.90555e-09
-5.36152e-08
-1.97947e-09
-5.24926e-08
-2.05048e-09
-5.13329e-08
-2.11843e-09
-5.01379e-08
-2.18317e-09
-4.89092e-08
-2.24456e-09
-4.76489e-08
-2.30246e-09
-4.63589e-08
-2.35674e-09
-4.50414e-08
-2.40725e-09
-4.36983e-08
-2.45386e-09
-4.2332e-08
-2.49644e-09
-4.09448e-08
-2.53486e-09
-3.95388e-08
-2.56899e-09
-3.81166e-08
-2.59871e-09
-3.66807e-08
-2.62391e-09
-3.52335e-08
-2.64445e-09
-3.37778e-08
-2.66024e-09
-3.2316e-08
-2.67116e-09
-3.0851e-08
-2.67711e-09
-2.93855e-08
-2.678e-09
-2.79223e-08
-2.67373e-09
-2.64642e-08
-2.66422e-09
-2.50143e-08
-2.64939e-09
-2.35753e-08
-2.62917e-09
-2.21503e-08
-2.60348e-09
-2.07423e-08
-2.57228e-09
-1.93543e-08
-2.53552e-09
-1.79893e-08
-2.49316e-09
-1.66504e-08
-2.44517e-09
-1.53406e-08
-2.39153e-09
-1.40631e-08
-2.33224e-09
-1.28208e-08
-2.26731e-09
-1.16168e-08
-2.19676e-09
-1.04541e-08
-2.12063e-09
-9.33563e-09
-2.03899e-09
-8.26436e-09
-1.95191e-09
-7.24313e-09
-1.85951e-09
-6.27471e-09
-1.76191e-09
-5.36178e-09
-1.65928e-09
-4.50688e-09
-1.55184e-09
-3.71243e-09
-1.43982e-09
-2.98065e-09
-1.32354e-09
-2.31358e-09
-1.20337e-09
-1.71296e-09
-1.07976e-09
-1.18026e-09
-9.53241e-10
-7.16548e-10
-8.24492e-10
-3.22456e-10
-6.9432e-10
1.93666e-12
-5.63719e-10
2.57225e-10
-4.33914e-10
4.44824e-10
-3.0643e-10
5.67159e-10
-1.83164e-10
6.27893e-10
-6.65012e-11
6.32215e-10
4.05554e-11
5.87174e-10
1.34215e-10
5.0206e-10
2.09709e-10
3.88799e-10
2.61117e-10
2.623e-10
2.81327e-10
1.40602e-10
2.62271e-10
4.47184e-11
1.96071e-10
7.93114e-11
4.97053e-11
-1.30908e-10
1.50323e-10
-2.9633e-10
2.69234e-10
-3.75403e-10
3.81243e-10
-3.80655e-10
4.65543e-10
-3.25326e-10
5.05069e-10
-2.21834e-10
4.86095e-10
-8.10211e-11
3.97843e-10
8.80296e-11
2.3208e-10
2.77871e-10
-1.72482e-11
4.82477e-10
-3.54377e-10
6.96995e-10
-7.82017e-10
9.17525e-10
-1.30162e-09
1.14093e-09
-1.9136e-09
1.36468e-09
-2.61751e-09
1.58674e-09
-3.41219e-09
1.80545e-09
-4.29592e-09
2.01948e-09
-5.26649e-09
2.22775e-09
-6.32129e-09
2.42937e-09
-7.45739e-09
2.62364e-09
-8.67161e-09
2.80998e-09
-9.96054e-09
2.98795e-09
-1.13206e-08
3.15717e-09
-1.27481e-08
3.31738e-09
-1.42393e-08
3.46835e-09
-1.57901e-08
3.60994e-09
-1.73968e-08
3.74202e-09
-1.90552e-08
3.86454e-09
-2.07614e-08
3.97747e-09
-2.25113e-08
4.08079e-09
-2.43009e-08
4.17454e-09
-2.61263e-08
4.25876e-09
-2.79833e-08
4.33352e-09
-2.98681e-08
4.39891e-09
-3.17766e-08
4.45502e-09
-3.37051e-08
4.50196e-09
-3.56497e-08
4.53985e-09
-3.76066e-08
4.56883e-09
-3.9572e-08
4.58905e-09
-4.15423e-08
4.60064e-09
-4.35139e-08
4.60376e-09
-4.54833e-08
4.59858e-09
-4.74469e-08
4.58525e-09
-4.94014e-08
4.56396e-09
-5.13435e-08
4.53488e-09
-5.32698e-08
4.49818e-09
-5.51773e-08
4.45404e-09
-5.70627e-08
4.40266e-09
-5.89231e-08
4.3442e-09
-6.07556e-08
4.27887e-09
-6.25572e-08
4.20686e-09
-6.43252e-08
4.12835e-09
-6.6057e-08
4.04353e-09
-6.77497e-08
3.95261e-09
-6.9401e-08
3.85578e-09
-7.10084e-08
3.75323e-09
-7.25696e-08
3.64517e-09
-7.40821e-08
3.53179e-09
-7.55439e-08
3.41329e-09
-7.69528e-08
3.28987e-09
-7.83068e-08
3.16174e-09
-7.96041e-08
3.0291e-09
-8.08426e-08
2.89216e-09
-8.20207e-08
2.75111e-09
-8.31367e-08
2.60617e-09
-8.4189e-08
2.45754e-09
-8.51761e-08
2.30544e-09
-8.60967e-08
2.15007e-09
-8.69494e-08
1.99164e-09
-8.77329e-08
1.83038e-09
-8.84463e-08
1.66648e-09
-8.90884e-08
1.50018e-09
-8.96583e-08
1.33169e-09
-9.01551e-08
1.16122e-09
-9.05782e-08
9.89008e-10
-9.09268e-08
8.15266e-10
-9.12004e-08
6.40223e-10
-9.13986e-08
4.64106e-10
-9.15209e-08
2.87145e-10
-9.15672e-08
1.09569e-10
-9.15373e-08
-6.83869e-11
-9.14311e-08
-2.46488e-10
-9.12486e-08
-4.24498e-10
-9.099e-08
-6.02178e-10
-9.06556e-08
-7.79285e-10
-9.02457e-08
-9.55579e-10
-8.97608e-08
-1.13081e-09
-8.92014e-08
-1.30474e-09
-8.85682e-08
-1.47712e-09
-8.7862e-08
-1.6477e-09
-8.70836e-08
-1.81622e-09
-8.62341e-08
-1.98243e-09
-8.53146e-08
-2.14609e-09
-8.43263e-08
-2.30693e-09
-8.32704e-08
-2.46471e-09
-8.21485e-08
-2.61916e-09
-8.0962e-08
-2.77004e-09
-7.97126e-08
-2.91707e-09
-7.84021e-08
-3.06002e-09
-7.70323e-08
-3.19862e-09
-7.56053e-08
-3.33262e-09
-7.4123e-08
-3.46176e-09
-7.25877e-08
-3.58579e-09
-7.10016e-08
-3.70446e-09
-6.93673e-08
-3.81753e-09
-6.76871e-08
-3.92474e-09
-6.59637e-08
-4.02584e-09
-6.41998e-08
-4.12061e-09
-6.23983e-08
-4.2088e-09
-6.0562e-08
-4.29018e-09
-5.86939e-08
-4.36452e-09
-5.67971e-08
-4.4316e-09
-5.48749e-08
-4.49119e-09
-5.29306e-08
-4.54309e-09
-5.09674e-08
-4.58709e-09
-4.89888e-08
-4.62298e-09
-4.69985e-08
-4.65059e-09
-4.49999e-08
-4.66971e-09
-4.29969e-08
-4.68019e-09
-4.0993e-08
-4.68184e-09
-3.89922e-08
-4.67453e-09
-3.69984e-08
-4.6581e-09
-3.50153e-08
-4.63242e-09
-3.30471e-08
-4.59736e-09
-3.10978e-08
-4.55284e-09
-2.91713e-08
-4.49874e-09
-2.72718e-08
-4.43501e-09
-2.54034e-08
-4.36157e-09
-2.35702e-08
-4.27839e-09
-2.17763e-08
-4.18544e-09
-2.00258e-08
-4.08274e-09
-1.83228e-08
-3.97032e-09
-1.66713e-08
-3.84821e-09
-1.50754e-08
-3.71652e-09
-1.35391e-08
-3.57537e-09
-1.20661e-08
-3.42491e-09
-1.06602e-08
-3.26535e-09
-9.32519e-09
-3.09694e-09
-8.06447e-09
-2.92e-09
-6.88139e-09
-2.73492e-09
-5.77906e-09
-2.54216e-09
-4.76033e-09
-2.34227e-09
-3.82775e-09
-2.13594e-09
-2.98353e-09
-1.92398e-09
-2.22942e-09
-1.70736e-09
-1.56666e-09
-1.48725e-09
-9.95884e-10
-1.2651e-09
-5.1699e-10
-1.04261e-09
-1.28996e-10
-8.2191e-10
1.70137e-10
-6.05564e-10
3.83709e-10
-3.96737e-10
5.16531e-10
-1.99323e-10
5.75209e-10
-1.81223e-11
5.68464e-10
1.40959e-10
5.07479e-10
2.70692e-10
4.06246e-10
3.62348e-10
2.81916e-10
4.05657e-10
1.55124e-10
3.89064e-10
5.05735e-11
3.00622e-10
1.29884e-10
4.75052e-11
-1.78417e-10
1.40262e-10
-3.89088e-10
2.42798e-10
-4.77934e-10
3.2772e-10
-4.65574e-10
3.72658e-10
-3.70265e-10
3.59253e-10
-2.0843e-10
2.72587e-10
5.64358e-12
1.00753e-10
2.59861e-10
-1.65517e-10
5.4414e-10
-5.33193e-10
8.50155e-10
-1.00727e-09
1.17107e-09
-1.59105e-09
1.50131e-09
-2.28641e-09
1.83628e-09
-3.09399e-09
2.17227e-09
-4.01345e-09
2.5062e-09
-5.04356e-09
2.83557e-09
-6.1824e-09
3.15833e-09
-7.42745e-09
3.47279e-09
-8.77567e-09
3.7776e-09
-1.02236e-08
4.07161e-09
-1.17676e-08
4.35392e-09
-1.34034e-08
4.62379e-09
-1.51269e-08
4.88064e-09
-1.69335e-08
5.12399e-09
-1.88186e-08
5.35348e-09
-2.07775e-08
5.56884e-09
-2.28054e-08
5.76988e-09
-2.48973e-08
5.95647e-09
-2.70484e-08
6.12853e-09
-2.92536e-08
6.28603e-09
-3.15081e-08
6.42899e-09
-3.38068e-08
6.55747e-09
-3.61448e-08
6.67154e-09
-3.85172e-08
6.77133e-09
-4.09192e-08
6.85696e-09
-4.33458e-08
6.92859e-09
-4.57924e-08
6.98641e-09
-4.82541e-08
7.03059e-09
-5.07264e-08
7.06135e-09
-5.32047e-08
7.07891e-09
-5.56844e-08
7.0835e-09
-5.81612e-08
7.07535e-09
-6.06307e-08
7.05472e-09
-6.30886e-08
7.02187e-09
-6.55308e-08
6.97704e-09
-6.79531e-08
6.92053e-09
-7.03517e-08
6.85259e-09
-7.27225e-08
6.7735e-09
-7.50619e-08
6.68356e-09
-7.7366e-08
6.58304e-09
-7.96314e-08
6.47224e-09
-8.18545e-08
6.35144e-09
-8.40319e-08
6.22095e-09
-8.61604e-08
6.08106e-09
-8.82367e-08
5.93207e-09
-9.02577e-08
5.77428e-09
-9.22205e-08
5.608e-09
-9.41223e-08
5.43353e-09
-9.59602e-08
5.25119e-09
-9.77316e-08
5.06127e-09
-9.94339e-08
4.86409e-09
-1.01065e-07
4.65997e-09
-1.02622e-07
4.44922e-09
-1.04103e-07
4.23215e-09
-1.05506e-07
4.00908e-09
-1.06829e-07
3.78034e-09
-1.08069e-07
3.54625e-09
-1.09226e-07
3.30713e-09
-1.10298e-07
3.06331e-09
-1.11283e-07
2.81512e-09
-1.12179e-07
2.56288e-09
-1.12986e-07
2.30694e-09
-1.13702e-07
2.04763e-09
-1.14326e-07
1.7853e-09
-1.14857e-07
1.52027e-09
-1.15295e-07
1.2529e-09
-1.15638e-07
9.83537e-10
-1.15887e-07
7.12528e-10
-1.1604e-07
4.40228e-10
-1.16097e-07
1.66994e-10
-1.16059e-07
-1.06816e-10
-1.15924e-07
-3.80838e-10
-1.15694e-07
-6.54708e-10
-1.15368e-07
-9.28056e-10
-1.14947e-07
-1.20051e-09
-1.14431e-07
-1.4717e-09
-1.13821e-07
-1.74125e-09
-1.13117e-07
-2.00878e-09
-1.1232e-07
-2.2739e-09
-1.11431e-07
-2.53623e-09
-1.10452e-07
-2.7954e-09
-1.09383e-07
-3.051e-09
-1.08227e-07
-3.30265e-09
-1.06984e-07
-3.54996e-09
-1.05656e-07
-3.79254e-09
-1.04245e-07
-4.02999e-09
-1.02753e-07
-4.26193e-09
-1.01182e-07
-4.48795e-09
-9.95348e-08
-4.70767e-09
-9.78128e-08
-4.9207e-09
-9.60188e-08
-5.12663e-09
-9.41554e-08
-5.3251e-09
-9.22255e-08
-5.5157e-09
-9.02319e-08
-5.69806e-09
-8.81777e-08
-5.87178e-09
-8.60659e-08
-6.03651e-09
-8.38999e-08
-6.19186e-09
-8.1683e-08
-6.33746e-09
-7.94189e-08
-6.47295e-09
-7.71111e-08
-6.59799e-09
-7.47634e-08
-6.71221e-09
-7.23797e-08
-6.81528e-09
-6.9964e-08
-6.90686e-09
-6.75205e-08
-6.98664e-09
-6.50533e-08
-7.0543e-09
-6.25667e-08
-7.10954e-09
-6.00652e-08
-7.15206e-09
-5.75533e-08
-7.1816e-09
-5.50356e-08
-7.19789e-09
-5.25168e-08
-7.20067e-09
-5.00016e-08
-7.18973e-09
-4.74949e-08
-7.16484e-09
-4.50015e-08
-7.12581e-09
-4.25264e-08
-7.07246e-09
-4.00746e-08
-7.00464e-09
-3.76511e-08
-6.92223e-09
-3.5261e-08
-6.8251e-09
-3.29094e-08
-6.71319e-09
-3.06013e-08
-6.58645e-09
-2.83419e-08
-6.44487e-09
-2.61362e-08
-6.28846e-09
-2.39892e-08
-6.11728e-09
-2.1906e-08
-5.93145e-09
-1.98914e-08
-5.7311e-09
-1.79503e-08
-5.51646e-09
-1.60874e-08
-5.28778e-09
-1.43073e-08
-5.04542e-09
-1.26145e-08
-4.78979e-09
-1.10131e-08
-4.5214e-09
-9.50715e-09
-4.24087e-09
-8.10035e-09
-3.94896e-09
-6.79608e-09
-3.64654e-09
-5.59733e-09
-3.33469e-09
-4.50664e-09
-3.01467e-09
-3.52599e-09
-2.68801e-09
-2.65672e-09
-2.35652e-09
-1.89944e-09
-2.02238e-09
-1.25386e-09
-1.68819e-09
-7.18648e-10
-1.35712e-09
-2.91258e-10
-1.03295e-09
3.2297e-11
-7.20293e-10
2.57676e-10
-4.24704e-10
3.92482e-10
-1.52928e-10
4.4655e-10
8.68912e-11
4.32261e-10
2.84981e-10
3.64873e-10
4.29734e-10
2.62923e-10
5.07605e-10
1.48746e-10
5.03242e-10
4.94517e-11
3.99916e-10
1.79336e-10
4.04112e-11
-2.18827e-10
1.14258e-10
-4.6294e-10
1.85796e-10
-5.49474e-10
2.26862e-10
-5.06638e-10
2.14406e-10
-3.5781e-10
1.29466e-10
-1.23491e-10
-4.3466e-11
1.78576e-10
-3.16899e-10
5.33294e-10
-7.00696e-10
9.27935e-10
-1.20239e-09
1.35184e-09
-1.82746e-09
1.79614e-09
-2.57961e-09
2.25346e-09
-3.46101e-09
2.71769e-09
-4.4725e-09
3.18376e-09
-5.61378e-09
3.64748e-09
-6.88359e-09
4.10538e-09
-8.27985e-09
4.55458e-09
-9.79977e-09
4.99271e-09
-1.144e-08
5.41781e-09
-1.31966e-08
5.82824e-09
-1.50654e-08
6.2227e-09
-1.70417e-08
6.60009e-09
-1.91206e-08
6.95953e-09
-2.12969e-08
7.30034e-09
-2.35654e-08
7.62194e-09
-2.59205e-08
7.92393e-09
-2.83566e-08
8.20599e-09
-3.0868e-08
8.46789e-09
-3.3449e-08
8.7095e-09
-3.60937e-08
8.93076e-09
-3.87964e-08
9.13165e-09
-4.15511e-08
9.31223e-09
-4.43522e-08
9.4726e-09
-4.71937e-08
9.61288e-09
-5.007e-08
9.73325e-09
-5.29754e-08
9.83393e-09
-5.59041e-08
9.91513e-09
-5.88506e-08
9.97711e-09
-6.18094e-08
1.00202e-08
-6.47751e-08
1.00446e-08
-6.77423e-08
1.00507e-08
-7.07057e-08
1.00388e-08
-7.36601e-08
1.00092e-08
-7.66006e-08
9.96235e-09
-7.95222e-08
9.89857e-09
-8.24199e-08
9.81824e-09
-8.5289e-08
9.72172e-09
-8.81249e-08
9.60943e-09
-9.09231e-08
9.48174e-09
-9.36792e-08
9.33907e-09
-9.63887e-08
9.18182e-09
-9.90477e-08
9.0104e-09
-1.01652e-07
8.82523e-09
-1.04198e-07
8.62672e-09
-1.06681e-07
8.41531e-09
-1.09098e-07
8.19141e-09
-1.11445e-07
7.95546e-09
-1.1372e-07
7.70789e-09
-1.15918e-07
7.44914e-09
-1.18036e-07
7.17965e-09
-1.20072e-07
6.89985e-09
-1.22022e-07
6.61019e-09
-1.23884e-07
6.31112e-09
-1.25655e-07
6.00309e-09
-1.27332e-07
5.68654e-09
-1.28914e-07
5.36195e-09
-1.30398e-07
5.02975e-09
-1.31781e-07
4.69043e-09
-1.33062e-07
4.34443e-09
-1.34239e-07
3.99223e-09
-1.35311e-07
3.63431e-09
-1.36275e-07
3.27113e-09
-1.3713e-07
2.90317e-09
-1.37876e-07
2.53092e-09
-1.3851e-07
2.15487e-09
-1.39033e-07
1.7755e-09
-1.39443e-07
1.39331e-09
-1.39739e-07
1.0088e-09
-1.39921e-07
6.22463e-10
-1.39989e-07
2.34818e-10
-1.39942e-07
-1.5363e-10
-1.39781e-07
-5.42364e-10
-1.39505e-07
-9.30866e-10
-1.39114e-07
-1.31861e-09
-1.3861e-07
-1.70508e-09
-1.37992e-07
-2.08973e-09
-1.37261e-07
-2.47203e-09
-1.36418e-07
-2.85145e-09
-1.35465e-07
-3.22744e-09
-1.34401e-07
-3.59946e-09
-1.3323e-07
-3.96696e-09
-1.31951e-07
-4.3294e-09
-1.30568e-07
-4.68621e-09
-1.29081e-07
-5.03685e-09
-1.27493e-07
-5.38076e-09
-1.25805e-07
-5.71739e-09
-1.24021e-07
-6.04618e-09
-1.22142e-07
-6.36657e-09
-1.20172e-07
-6.67801e-09
-1.18113e-07
-6.97995e-09
-1.15968e-07
-7.27183e-09
-1.1374e-07
-7.5531e-09
-1.11432e-07
-7.82322e-09
-1.09048e-07
-8.08165e-09
-1.06592e-07
-8.32784e-09
-1.04068e-07
-8.56127e-09
-1.01478e-07
-8.78142e-09
-9.88278e-08
-8.98775e-09
-9.6121e-08
-9.17978e-09
-9.3362e-08
-9.35698e-09
-9.05553e-08
-9.51888e-09
-8.77056e-08
-9.665e-09
-8.48176e-08
-9.79487e-09
-8.18962e-08
-9.90803e-09
-7.89465e-08
-1.00041e-08
-7.59735e-08
-1.00825e-08
-7.29825e-08
-1.0143e-08
-6.99789e-08
-1.01852e-08
-6.69681e-08
-1.02086e-08
-6.39558e-08
-1.0213e-08
-6.09475e-08
-1.01981e-08
-5.79489e-08
-1.01634e-08
-5.49659e-08
-1.01088e-08
-5.20043e-08
-1.00341e-08
-4.907e-08
-9.93894e-09
-4.61689e-08
-9.82327e-09
-4.33071e-08
-9.68691e-09
-4.04905e-08
-9.52979e-09
-3.77252e-08
-9.35183e-09
-3.5017e-08
-9.15306e-09
-3.23719e-08
-8.9335e-09
-2.97959e-08
-8.69328e-09
-2.72948e-08
-8.43257e-09
-2.48743e-08
-8.1516e-09
-2.25401e-08
-7.8507e-09
-2.02976e-08
-7.53028e-09
-1.81522e-08
-7.19085e-09
-1.61089e-08
-6.83304e-09
-1.41727e-08
-6.45762e-09
-1.23481e-08
-6.06549e-09
-1.06393e-08
-5.65773e-09
-9.05018e-09
-5.23565e-09
-7.58409e-09
-4.80078e-09
-6.24382e-09
-4.35494e-09
-5.03155e-09
-3.90028e-09
-3.94871e-09
-3.43937e-09
-2.99586e-09
-2.97523e-09
-2.17257e-09
-2.51148e-09
-1.47726e-09
-2.05243e-09
-9.06995e-10
-1.60322e-09
-4.57312e-10
-1.16998e-09
-1.21981e-10
-7.60036e-10
1.07234e-10
-3.82144e-10
2.40839e-10
-4.67138e-11
2.91896e-10
2.33924e-10
2.76355e-10
4.45275e-10
2.13479e-10
5.70479e-10
1.26453e-10
5.90266e-10
4.34222e-11
4.82946e-10
2.22758e-10
2.99598e-11
-2.48782e-10
7.65993e-11
-5.09582e-10
1.05636e-10
-5.78514e-10
8.93402e-11
-4.90343e-10
4.79563e-12
-2.73266e-10
-1.66973e-10
4.82746e-11
-4.41576e-10
4.53179e-10
-8.31702e-10
9.2342e-10
-1.34744e-09
1.44368e-09
-1.99658e-09
2.00099e-09
-2.78486e-09
2.58442e-09
-3.71618e-09
3.18479e-09
-4.79287e-09
3.79438e-09
-6.01587e-09
4.40676e-09
-7.38489e-09
5.0165e-09
-8.8986e-09
5.61909e-09
-1.05548e-08
6.21075e-09
-1.23504e-08
6.78832e-09
-1.42818e-08
7.34919e-09
-1.63447e-08
7.89115e-09
-1.85344e-08
8.41241e-09
-2.08458e-08
8.91148e-09
-2.32734e-08
9.38714e-09
-2.58115e-08
9.83841e-09
-2.8454e-08
1.02645e-08
-3.11949e-08
1.06648e-08
-3.40278e-08
1.10389e-08
-3.69463e-08
1.13864e-08
-3.99439e-08
1.17071e-08
-4.3014e-08
1.20008e-08
-4.61499e-08
1.22676e-08
-4.93451e-08
1.25074e-08
-5.25929e-08
1.27204e-08
-5.58868e-08
1.29068e-08
-5.92202e-08
1.30666e-08
-6.25865e-08
1.32002e-08
-6.59792e-08
1.33079e-08
-6.93921e-08
1.339e-08
-7.28187e-08
1.34468e-08
-7.62529e-08
1.34787e-08
-7.96884e-08
1.34862e-08
-8.31193e-08
1.34696e-08
-8.65396e-08
1.34295e-08
-8.99434e-08
1.33662e-08
-9.33251e-08
1.32803e-08
-9.66791e-08
1.31722e-08
-9.99998e-08
1.30424e-08
-1.03282e-07
1.28916e-08
-1.0652e-07
1.27201e-08
-1.0971e-07
1.25285e-08
-1.12845e-07
1.23174e-08
-1.15922e-07
1.20873e-08
-1.18936e-07
1.18388e-08
-1.21881e-07
1.15724e-08
-1.24755e-07
1.12887e-08
-1.27552e-07
1.09882e-08
-1.30268e-07
1.06716e-08
-1.32899e-07
1.03394e-08
-1.35442e-07
9.99215e-09
-1.37893e-07
9.63052e-09
-1.40248e-07
9.25506e-09
-1.42504e-07
8.86638e-09
-1.44658e-07
8.46507e-09
-1.46707e-07
8.05173e-09
-1.48647e-07
7.62698e-09
-1.50477e-07
7.19142e-09
-1.52193e-07
6.74567e-09
-1.53793e-07
6.29035e-09
-1.55274e-07
5.82609e-09
-1.56636e-07
5.35351e-09
-1.57875e-07
4.87325e-09
-1.58989e-07
4.38595e-09
-1.59979e-07
3.89225e-09
-1.6084e-07
3.39281e-09
-1.61574e-07
2.88826e-09
-1.62178e-07
2.37929e-09
-1.62651e-07
1.86654e-09
-1.62993e-07
1.35069e-09
-1.63203e-07
8.32412e-10
-1.6328e-07
3.12391e-10
-1.63225e-07
-2.08688e-10
-1.63037e-07
-7.30134e-10
-1.62717e-07
-1.25125e-09
-1.62264e-07
-1.77133e-09
-1.6168e-07
-2.28967e-09
-1.60964e-07
-2.80556e-09
-1.60118e-07
-3.31828e-09
-1.59142e-07
-3.82711e-09
-1.58038e-07
-4.33132e-09
-1.56807e-07
-4.83018e-09
-1.55451e-07
-5.32296e-09
-1.53972e-07
-5.80892e-09
-1.52371e-07
-6.28733e-09
-1.5065e-07
-6.75744e-09
-1.48812e-07
-7.21851e-09
-1.4686e-07
-7.66979e-09
-1.44796e-07
-8.11055e-09
-1.42622e-07
-8.54003e-09
-1.40343e-07
-8.9575e-09
-1.3796e-07
-9.36222e-09
-1.35479e-07
-9.75344e-09
-1.32902e-07
-1.01304e-08
-1.30232e-07
-1.04925e-08
-1.27475e-07
-1.08389e-08
-1.24634e-07
-1.11688e-08
-1.21714e-07
-1.14817e-08
-1.18718e-07
-1.17768e-08
-1.15653e-07
-1.20533e-08
-1.12522e-07
-1.23107e-08
-1.0933e-07
-1.25483e-08
-1.06084e-07
-1.27654e-08
-1.02788e-07
-1.29614e-08
-9.94468e-08
-1.31356e-08
-9.60673e-08
-1.32875e-08
-9.26548e-08
-1.34165e-08
-8.92153e-08
-1.3522e-08
-8.57548e-08
-1.36036e-08
-8.22794e-08
-1.36606e-08
-7.87954e-08
-1.36926e-08
-7.53092e-08
-1.36992e-08
-7.18273e-08
-1.368e-08
-6.83561e-08
-1.36345e-08
-6.49024e-08
-1.35625e-08
-6.14729e-08
-1.34636e-08
-5.80743e-08
-1.33376e-08
-5.47133e-08
-1.31842e-08
-5.13969e-08
-1.30033e-08
-4.81318e-08
-1.27949e-08
-4.49249e-08
-1.25587e-08
-4.17829e-08
-1.2295e-08
-3.87127e-08
-1.20037e-08
-3.5721e-08
-1.16851e-08
-3.28142e-08
-1.13393e-08
-2.9999e-08
-1.09668e-08
-2.72817e-08
-1.0568e-08
-2.46685e-08
-1.01435e-08
-2.21653e-08
-9.69403e-09
-1.97779e-08
-9.22046e-09
-1.75117e-08
-8.72384e-09
-1.53717e-08
-8.20542e-09
-1.33628e-08
-7.66671e-09
-1.1489e-08
-7.10945e-09
-9.75404e-09
-6.53572e-09
-8.16103e-09
-5.94796e-09
-6.71227e-09
-5.34904e-09
-5.40928e-09
-4.74235e-09
-4.25264e-09
-4.13187e-09
-3.24182e-09
-3.5223e-09
-2.37508e-09
-2.91917e-09
-1.64926e-09
-2.32904e-09
-1.05962e-09
-1.75962e-09
-5.99596e-10
-1.22006e-09
-2.60637e-10
-7.21104e-10
-3.19216e-11
-2.7543e-10
9.98854e-11
1.02117e-10
1.50953e-10
3.94208e-10
1.40702e-10
5.8073e-10
9.23858e-11
6.38582e-10
3.39829e-11
5.41349e-10
2.56741e-10
1.72484e-11
-2.66029e-10
3.06038e-11
-5.22937e-10
8.30821e-12
-5.5622e-10
-7.60202e-11
-4.06015e-10
-2.44487e-10
-1.04799e-10
-5.15559e-10
3.19345e-10
-9.04537e-10
8.42156e-10
-1.42393e-09
1.44281e-09
-2.08376e-09
2.1035e-09
-2.89179e-09
2.80902e-09
-3.85378e-09
3.54641e-09
-4.97369e-09
4.3047e-09
-6.25386e-09
5.07456e-09
-7.69521e-09
5.84811e-09
-9.29741e-09
6.6187e-09
-1.1059e-08
7.38069e-09
-1.29776e-08
8.12936e-09
-1.505e-08
8.8607e-09
-1.72722e-08
9.57137e-09
-1.96396e-08
1.02586e-08
-2.21471e-08
1.09199e-08
-2.47892e-08
1.15535e-08
-2.75598e-08
1.21578e-08
-3.04528e-08
1.27313e-08
-3.34614e-08
1.32732e-08
-3.65791e-08
1.37825e-08
-3.97987e-08
1.42585e-08
-4.31133e-08
1.47009e-08
-4.65156e-08
1.51093e-08
-4.99983e-08
1.54835e-08
-5.35541e-08
1.58234e-08
-5.71757e-08
1.6129e-08
-6.08556e-08
1.64004e-08
-6.45866e-08
1.66377e-08
-6.83613e-08
1.68413e-08
-7.21724e-08
1.70113e-08
-7.60127e-08
1.71482e-08
-7.98751e-08
1.72523e-08
-8.37524e-08
1.73241e-08
-8.76377e-08
1.7364e-08
-9.15241e-08
1.73726e-08
-9.54048e-08
1.73503e-08
-9.92731e-08
1.72978e-08
-1.03123e-07
1.72156e-08
-1.06947e-07
1.71044e-08
-1.10739e-07
1.69646e-08
-1.14494e-07
1.67971e-08
-1.18205e-07
1.66024e-08
-1.21866e-07