/*--------------------------------*- C++ -*----------------------------------*\
  =========                 |
  \\      /  F ield         | OpenFOAM: The Open Source CFD Toolbox
   \\    /   O peration     | Website:  https://openfoam.org
    \\  /    A nd           | Version:  7
     \\/     M anipulation  |
\*---------------------------------------------------------------------------*/
FoamFile
{
    version     2.0;
    format      ascii;
    class       volScalarField;
    location    "0.35";
    object      p;
}
// * * * * * * * * * * * * * * * * * * * * * * * * * * * * * * * * * * * * * //

dimensions      [0 2 -2 0 0 0 0];

internalField   nonuniform List<scalar> 
1600
(
6.85502e-06
-0.00117946
-0.00390916
-0.00758258
-0.0115269
-0.0152467
-0.0183842
-0.0206869
-0.0219874
-0.022186
-0.021237
-0.0191384
-0.0159238
-0.011656
-0.00642238
-0.000330615
0.00649435
0.0139131
0.0217744
0.0299171
0.0381733
0.0463703
0.0543336
0.0618905
0.0688733
0.0751235
0.0804964
0.084866
0.0881309
0.0902196
0.0910971
0.0907721
0.089305
0.0868168
0.0835008
0.0796361
0.0756029
0.0719095
0.0692241
0.068108
0.0012001
9.72813e-06
-0.00220655
-0.00505747
-0.00809969
-0.0109681
-0.0133781
-0.0151166
-0.0160335
-0.0160329
-0.0150647
-0.0131174
-0.0102118
-0.00639608
-0.00174138
0.00366166
0.00970587
0.0162703
0.0232225
0.0304212
0.0377185
0.0449622
0.0519994
0.0586787
0.0648543
0.0703894
0.0751607
0.0790624
0.0820117
0.0839534
0.0848656
0.0847654
0.0837146
0.0818262
0.0792708
0.0762824
0.0731629
0.0702882
0.0681053
0.0669947
0.00394453
0.00221724
-2.94897e-05
-0.00258864
-0.00521709
-0.00764506
-0.00964899
-0.0110573
-0.0117443
-0.0116262
-0.0106572
-0.00882394
-0.00614178
-0.0026505
0.00158902
0.00649781
0.0119814
0.0179324
0.0242326
0.0307551
0.0373669
0.0439315
0.050311
0.0563696
0.0619767
0.0670103
0.071361
0.074936
0.0776634
0.0794967
0.0804194
0.0804491
0.0796422
0.0780977
0.0759596
0.0734189
0.0707156
0.0681314
0.0659248
0.0643073
0.0077076
0.00509673
0.00245589
-0.000172911
-0.00272778
-0.00500885
-0.00684193
-0.00809531
-0.00867061
-0.00850108
-0.00755003
-0.00580808
-0.00329006
-3.21591e-05
0.00391062
0.00846693
0.0135512
0.0190658
0.0249029
0.0309466
0.037075
0.0431626
0.0490827
0.0547102
0.0599247
0.0646139
0.0686769
0.0720281
0.0746008
0.0763516
0.0772636
0.0773499
0.0766571
0.0752668
0.0732961
0.0708968
0.0682612
0.0656045
0.0630138
0.0605455
0.0118956
0.00825628
0.0050479
0.00216752
-0.000489958
-0.00278062
-0.0045719
-0.00576919
-0.00630137
-0.00612009
-0.0052004
-0.00353932
-0.00115396
0.00192043
0.00563231
0.00991561
0.0146915
0.0198699
0.0253513
0.0310287
0.036789
0.0425155
0.04809
0.0533956
0.0583193
0.0627552
0.0666077
0.0697951
0.0722528
0.0739368
0.0748269
0.074929
0.0742775
0.0729361
0.0709956
0.0685729
0.0658215
0.0629046
0.0597517
0.0562821
0.0160824
0.0113717
0.00750308
0.00425332
0.00137103
-0.00104282
-0.0028892
-0.00410619
-0.00464803
-0.00448468
-0.00360379
-0.00201038
0.00027434
0.00321409
0.00675875
0.0108455
0.0154003
0.0203387
0.0255676
0.0309866
0.0364894
0.0419659
0.0473041
0.0523927
0.0571234
0.0613942
0.0651119
0.0681958
0.0705803
0.0722184
0.0730841
0.0731743
0.0725105
0.0711385
0.0691256
0.0665587
0.0635615
0.0602593
0.0564441
0.0519229
0.0199589
0.0141818
0.00960635
0.00591122
0.0027194
0.000100472
-0.00187254
-0.00316543
-0.00375514
-0.00362886
-0.00278695
-0.00124315
0.000975993
0.00383166
0.0072735
0.0112403
0.0156609
0.0204547
0.0255331
0.0308004
0.0361551
0.0414916
0.046702
0.051678
0.056314
0.0605088
0.0641695
0.0672135
0.0695719
0.0711924
0.0720413
0.0721054
0.0713928
0.0699328
0.0677718
0.0649723
0.0616368
0.0578647
0.0533318
0.0477546
0.023292
0.0164727
0.0111726
0.00698856
0.00343462
0.000557881
-0.0015883
-0.00299293
-0.00365283
-0.00357099
-0.00275997
-0.00124248
0.000948866
0.00377171
0.0071742
0.0110953
0.0154653
0.0202059
0.0252314
0.030449
0.0357604
0.0410625
0.0462494
0.0512142
0.0558513
0.0600586
0.0637408
0.0668115
0.0691964
0.0708358
0.0716869
0.0717254
0.0709464
0.0693636
0.0670056
0.0639154
0.0601808
0.0558858
0.0506065
0.0439855
0.0258995
0.0180653
0.0120375
0.00734204
0.00339628
0.00023126
-0.00211442
-0.00364921
-0.00438728
-0.00434591
-0.00354921
-0.00202877
0.000176364
0.00301958
0.00644661
0.0103955
0.0147967
0.0195731
0.0246403
0.0299073
0.0352771
0.0406476
0.0459134
0.050967
0.055701
0.0600106
0.0637959
0.0669647
0.0694356
0.0711399
0.0720243
0.0720525
0.0712067
0.0694862
0.0669043
0.0634882
0.059317
0.054466
0.0484242
0.0407711
0.0276311
0.0188037
0.0120511
0.00683462
0.00248285
-0.000984577
-0.00354027
-0.00520921
-0.00602086
-0.00600549
-0.0051981
-0.00363898
-0.00137381
0.00154608
0.00506331
0.00911417
0.0136283
0.0185287
0.0237313
0.0291454
0.0346743
0.0402156
0.0456626
0.0509059
0.0558349
0.0603398
0.0643148
0.0676602
0.0702851
0.0721107
0.0730718
0.0731196
0.0722226
0.0703669
0.0675519
0.0637923
0.0591623
0.0537344
0.0469172
0.0382342
0.0283537
0.0185466
0.011073
0.00533316
0.00057188
-0.00319987
-0.00596341
-0.00775829
-0.00862774
-0.00861411
-0.00776272
-0.00612246
-0.00374574
-0.000689006
0.00298676
0.00721545
0.0119253
0.0170382
0.0224699
0.028129
0.0339181
0.0397332
0.0454655
0.0510021
0.0562275
0.0610261
0.0652841
0.0688924
0.0717496
0.0737644
0.0748588
0.0749702
0.0740531
0.0720802
0.0690383
0.0649314
0.0598316
0.053812
0.0462052
0.0364811
0.0279419
0.0171587
0.00896612
0.00270507
-0.00246177
-0.00653028
-0.00948909
-0.011391
-0.0122924
-0.0122469
-0.01131
-0.00953917
-0.00699372
-0.00373546
0.000170591
0.00465546
0.00964533
0.0150608
0.0208163
0.0268194
0.032971
0.039165
0.0452893
0.0512265
0.0568551
0.0620521
0.0666944
0.070662
0.0738408
0.0761257
0.077424
0.0776577
0.0767667
0.0747096
0.0714607
0.0670141
0.0614417
0.0548195
0.0464041
0.0356127
0.0262702
0.0145049
0.00559274
-0.00118516
-0.00674809
-0.0110981
-0.0142306
-0.0162111
-0.0171088
-0.0169888
-0.0159166
-0.0139585
-0.011181
-0.00765145
-0.00343932
0.00138322
0.00674002
0.0125499
0.0187258
0.0251736
0.0317923
0.038473
0.0450997
0.0515497
0.0576947
0.0634026
0.06854
0.0729741
0.0765766
0.0792265
0.0808143
0.081245
0.080442
0.0783486
0.0749256
0.0701575
0.0641165
0.0568825
0.0476342
0.0357341
0.0232077
0.0104455
0.000809651
-0.00647922
-0.0124242
-0.0170337
-0.0203097
-0.0223311
-0.02318
-0.0229335
-0.0216677
-0.0194579
-0.0163781
-0.012502
-0.00790334
-0.00265791
0.00315568
0.00945437
0.0161494
0.0231451
0.0303381
0.0376166
0.0448605
0.0519411
0.0587226
0.0650632
0.070817
0.0758375
0.0799799
0.0831053
0.085085
0.0858045
0.0851681
0.0831019
0.0795518
0.0744909
0.0679918
0.0601384
0.0500269
0.0369622
0.0186142
0.00483138
-0.0055354
-0.0133282
-0.0196369
-0.024477
-0.0278579
-0.0298727
-0.0306177
-0.0301828
-0.0286555
-0.026121
-0.0226616
-0.018357
-0.0132862
-0.00752846
-0.00116483
0.00571983
0.0130353
0.0206845
0.0285621
0.0365533
0.0445338
0.0523691
0.059915
0.0670193
0.0735231
0.0792636
0.0840778
0.0878066
0.0902991
0.0914182
0.091046
0.0890883
0.0854729
0.0801595
0.07322
0.0647417
0.0537311
0.0394318
0.0123361
-0.00249922
-0.0136074
-0.0218956
-0.028545
-0.0335793
-0.0370168
-0.0389669
-0.0395416
-0.0388451
-0.036978
-0.0340362
-0.030111
-0.0252892
-0.0196548
-0.0132905
-0.00627991
0.00129088
0.00933072
0.0177416
0.0264167
0.0352391
0.0440804
0.0528005
0.061247
0.0692566
0.0766561
0.0832655
0.0889011
0.0933806
0.0965277
0.0981789
0.0981899
0.0964418
0.0928406
0.087329
0.0799756
0.0708697
0.0589196
0.0433022
0.00420365
-0.0117248
-0.023588
-0.032361
-0.0393221
-0.0445052
-0.0479399
-0.0497541
-0.0500786
-0.0490344
-0.0467365
-0.0432937
-0.038807
-0.0333709
-0.0270748
-0.0200048
-0.0122463
-0.00388621
0.00498417
0.0142669
0.023855
0.0336301
0.0434608
0.0532019
0.0626932
0.0717601
0.0802146
0.0878579
0.0944835
0.0998827
0.10385
0.10619
0.106729
0.105315
0.101829
0.0961897
0.0884602
0.0787291
0.0657952
0.0487628
-0.00597289
-0.0230448
-0.0356796
-0.0449237
-0.0521598
-0.0574347
-0.0607928
-0.0623844
-0.0623626
-0.0608682
-0.0580339
-0.0539827
-0.0488272
-0.0426703
-0.0356069
-0.0277264
-0.0191151
-0.00985995
-5.09299e-05
0.0102155
0.0208334
0.0316849
0.042637
0.0535405
0.0642283
0.074515
0.0841974
0.0930566
0.100861
0.107373
0.112353
0.115569
0.116807
0.115882
0.112636
0.106962
0.0989092
0.0885623
0.0745979
0.0560404
-0.018407
-0.0366841
-0.0501102
-0.0598071
-0.067271
-0.0725658
-0.075755
-0.0770171
-0.076532
-0.0744653
-0.0709704
-0.0661875
-0.0602424
-0.0532471
-0.0453023
-0.0365001
-0.0269273
-0.0166689
-0.00581209
0.00555012
0.0173152
0.0293674
0.0415747
0.0537859
0.0658284
0.0775069
0.0886035
0.0988785
0.108074
0.115918
0.122133
0.126443
0.12859
0.12834
0.125493
0.119902
0.111598
0.100656
0.0856131
0.0654066
-0.033341
-0.0528998
-0.0671404
-0.0772648
-0.0848947
-0.090117
-0.093021
-0.0938202
-0.0927288
-0.0899423
-0.0856399
-0.0799821
-0.0731099
-0.0651456
-0.0561958
-0.0463545
-0.0357074
-0.0243361
-0.0123224
0.0002466
0.0132744
0.0266507
0.0402469
0.0539127
0.0674726
0.0807233
0.093433
0.105341
0.116162
0.125586
0.133293
0.138956
0.14226
0.142916
0.140664
0.135309
0.126852
0.11535
0.0991816
0.077187
-0.0510532
-0.0719894
-0.0870713
-0.0975875
-0.105301
-0.110331
-0.112801
-0.112969
-0.111094
-0.107409
-0.102124
-0.0954237
-0.0874673
-0.0783884
-0.068299
-0.0572942
-0.0454567
-0.032862
-0.0195841
-0.00570053
0.00870174
0.0235214
0.0386373
0.0539036
0.0691453
0.0841544
0.0986872
0.112464
0.125168
0.136452
0.145946
0.153264
0.158024
0.159865
0.158456
0.153533
0.145056
0.13305
0.115712
0.0917725
-0.0718675
-0.0943022
-0.110256
-0.121113
-0.1288
-0.133478
-0.135321
-0.134646
-0.131766
-0.126962
-0.120483
-0.112544
-0.103323
-0.0929666
-0.0815912
-0.0692915
-0.0561447
-0.0422172
-0.0275713
-0.0122713
0.00361016
0.0199852
0.0367448
0.0537527
0.0708391
0.0877953
0.10437
0.120264
0.135134
0.148592
0.16021
0.169537
0.17611
0.179479
0.179222
0.174986
0.166666
0.154242
0.135695
0.109634
-0.0961671
-0.120256
-0.137116
-0.148239
-0.155746
-0.159862
-0.160825
-0.159032
-0.154869
-0.148676
-0.14075
-0.13134
-0.120647
-0.10883
-0.0960093
-0.0822767
-0.0677004
-0.0523337
-0.0362225
-0.019413
-0.0019585
0.0160724
0.0345888
0.0534697
0.0725569
0.0916471
0.110486
0.128761
0.146103
0.162081
0.176209
0.187958
0.19677
0.202089
0.203372
0.20015
0.192228
0.179512
0.159727
0.131342
-0.124415
-0.15036
-0.168163
-0.179441
-0.186556
-0.189821
-0.189572
-0.186309
-0.180511
-0.172595
-0.162914
-0.151759
-0.139355
-0.125873
-0.111436
-0.0961275
-0.0800023
-0.0630958
-0.0454321
-0.0270333
-0.00792725
0.0118434
0.0322128
0.053083
0.0743147
0.095718
0.117043
0.137972
0.158111
0.176992
0.194065
0.208716
0.220279
0.228063
0.231377
0.229596
0.222396
0.209573
0.188535
0.157591
-0.157183
-0.185247
-0.204027
-0.215294
-0.221716
-0.223739
-0.221834
-0.216643
-0.208766
-0.198713
-0.186907
-0.173685
-0.159297
-0.143926
-0.127689
-0.110658
-0.092869
-0.0743323
-0.0550436
-0.0349939
-0.0141785
0.0073933
0.029689
0.0526424
0.0761426
0.100023
0.124049
0.147905
0.171185
0.193384
0.213893
0.232006
0.246929
0.257814
0.263781
0.263998
0.25796
0.245297
0.22302
0.189236
-0.195196
-0.225727
-0.245504
-0.256504
-0.261802
-0.262042
-0.257889
-0.250175
-0.239654
-0.226955
-0.212582
-0.196918
-0.18024
-0.162733
-0.144505
-0.125609
-0.106051
-0.0858094
-0.0648438
-0.0431061
-0.0205509
0.00285426
0.0271192
0.0522195
0.0780842
0.104582
0.131506
0.158558
0.185331
0.211296
0.235789
0.258007
0.277021
0.291791
0.301202
0.304153
0.29988
0.287768
0.264306
0.227346
-0.2394
-0.272853
-0.293616
-0.30395
-0.307498
-0.305205
-0.298008
-0.286996
-0.273123
-0.257156
-0.23969
-0.221156
-0.201848
-0.181944
-0.161535
-0.140638
-0.119224
-0.0972267
-0.0745606
-0.0511296
-0.026839
-0.00160535
0.0246333
0.0519053
0.0801922
0.109413
0.139405
0.169905
0.200524
0.230727
0.259807
0.286873
0.310844
0.330468
0.344337
0.351
0.34933
0.338342
0.313824
0.273273
-0.291062
-0.328037
-0.349696
-0.358734
-0.359616
-0.353737
-0.342427
-0.327115
-0.309003
-0.289018
-0.267848
-0.245964
-0.223662
-0.2011
-0.178328
-0.155318
-0.131988
-0.108219
-0.0838657
-0.0587768
-0.0327984
-0.00578667
0.0223826
0.0518023
0.0825203
0.114522
0.147711
0.181881
0.216687
0.251613
0.285936
0.318691
0.348653
0.374327
0.393959
0.405643
0.407752
0.398744
0.373425
0.328771
-0.35194
-0.39321
-0.415514
-0.422248
-0.419104
-0.408162
-0.391307
-0.370406
-0.34696
-0.32207
-0.296504
-0.270752
-0.245087
-0.219617
-0.194332
-0.169135
-0.143874
-0.118361
-0.092384
-0.0657233
-0.0381572
-0.00947251
0.0205273
0.0520114
0.0851085
0.11989
0.156346
0.194357
0.233658
0.27379
0.314052
0.353442
0.390607
0.423808
0.450887
0.469363
0.476922
0.471198
0.445562
0.396174
-0.424557
-0.471092
-0.493454
-0.496248
-0.487047
-0.468968
-0.444654
-0.416528
-0.386425
-0.35561
-0.324896
-0.294749
-0.265373
-0.236791
-0.208895
-0.181496
-0.154351
-0.127187
-0.0997113
-0.0716267
-0.0426355
-0.012447
0.0192165
0.0526113
0.0879613
0.125442
0.165158
0.20711
0.251155
0.296944
0.343858
0.390919
0.436701
0.479237
0.515933
0.543611
0.559028
0.558604
0.533565
0.478689
-0.512678
-0.565598
-0.586752
-0.582922
-0.564618
-0.536493
-0.502197
-0.464809
-0.426497
-0.388634
-0.352004
-0.316972
-0.283609
-0.251793
-0.22128
-0.191754
-0.162857
-0.134214
-0.105441
-0.0761541
-0.0459728
-0.0145229
0.0185611
0.0536314
0.09102
0.131025
0.173893
0.219782
0.268722
0.320546
0.3748
0.430628
0.486629
0.540691
0.589793
0.629954
0.656734
0.664788
0.642069
0.580917
-0.622173
-0.682496
-0.699812
-0.684922
-0.652947
-0.610735
-0.563191
-0.514083
-0.465824
-0.41976
-0.376511
-0.336219
-0.298726
-0.263695
-0.230691
-0.199234
-0.168828
-0.138979
-0.109201
-0.0790177
-0.0479626
-0.0155752
0.0186009
0.0550195
0.0941296
0.136369
0.182149
0.231828
0.28567
0.34377
0.405955
0.471637
0.539609
0.60778
0.672823
0.729931
0.773202
0.79482
0.777709
0.709771
-0.762659
-0.830466
-0.83857
-0.805279
-0.752823
-0.691009
-0.626116
-0.562462
-0.502454
-0.447145
-0.396767
-0.351065
-0.309525
-0.271504
-0.236317
-0.203285
-0.171748
-0.141084
-0.110696
-0.0800158
-0.0484912
-0.0155778
0.0192703
0.0566082
0.0970061
0.141051
0.189343
0.242477
0.301011
0.365402
0.435902
0.51239
0.594115
0.679322
0.76468
0.844733
0.911995
0.955375
0.950201
0.876237
-0.950824
-1.02277
-1.01076
-0.946968
-0.864059
-0.775344
-0.688216
-0.607035
-0.533662
-0.468411
-0.410783
-0.359897
-0.314724
-0.274221
-0.237396
-0.203336
-0.171206
-0.140246
-0.109754
-0.0790742
-0.0475751
-0.0146368
0.0203676
0.0580875
0.0992103
0.144474
0.194679
0.250685
0.313402
0.383748
0.462566
0.550457
0.647507
0.752806
0.863639
0.974489
1.07658
1.15497
1.17408
1.09894
-1.21718
-1.27971
-1.22551
-1.11154
-0.984071
-0.859371
-0.744754
-0.643428
-0.55574
-0.480569
-0.416238
-0.360957
-0.313025
-0.270911
-0.233275
-0.198955
-0.16694
-0.136342
-0.106365
-0.0762785
-0.0453884
-0.0130146
0.0215344
0.0589866
0.100132
0.145848
0.197129
0.255112
0.321096
0.396543
0.48305
0.582236
0.695508
0.823558
0.96537
1.11672
1.26884
1.40348
1.47114
1.41122
-1.61771
-1.63095
-1.49153
-1.29672
-1.10589
-0.935007
-0.788314
-0.665548
-0.563985
-0.480142
-0.410642
-0.352517
-0.303267
-0.260831
-0.223517
-0.18993
-0.158905
-0.129454
-0.10071
-0.0718928
-0.0422708
-0.0111275
0.022269
0.0586986
0.0990258
0.144239
0.195501
0.254202
0.322026
0.401022
0.493658
0.602849
0.731862
0.883979
1.06156
1.26423
1.4865
1.71008
1.8724
1.87274
-2.25446
-2.11587
-1.81359
-1.49443
-1.21742
-0.990515
-0.809418
-0.666455
-0.553627
-0.464015
-0.392069
-0.333473
-0.284904
-0.243805
-0.208188
-0.176484
-0.147428
-0.119972
-0.0932218
-0.0663815
-0.0387118
-0.00949184
0.0220183
0.0566156
0.095198
0.138817
0.188747
0.246569
0.314292
0.394504
0.490568
0.606858
0.748991
0.923946
1.13978
1.40421
1.72094
2.07939
2.41784
2.58911
-3.35592
-2.78318
-2.1727
-1.67585
-1.29258
-1.00573
-0.79415
-0.637276
-0.519332
-0.429176
-0.358976
-0.303185
-0.257841
-0.220061
-0.187704
-0.159137
-0.13308
-0.108494
-0.0845061
-0.0603487
-0.0353136
-0.00871111
0.0201683
0.0520948
0.0879466
0.12877
0.175862
0.230878
0.296001
0.374174
0.469457
0.587551
0.736533
0.927897
1.17798
1.50834
1.94099
2.49108
3.15796
3.79444
-5.52067
-3.66081
-2.43095
-1.71418
-1.24179
-0.921816
-0.70487
-0.553972
-0.445496
-0.365213
-0.304191
-0.256575
-0.218407
-0.186924
-0.160132
-0.136538
-0.11499
-0.09456
-0.0744737
-0.0540528
-0.0326726
-0.00972523
0.0154155
0.0434311
0.0751028
0.111368
0.153399
0.202718
0.261371
0.332196
0.419277
0.528677
0.669682
0.857075
1.11541
1.48391
2.01598
2.8054
4.12342
6.0914
-9.20662
-4.51956
-2.30623
-1.42119
-0.958943
-0.682909
-0.512255
-0.400585
-0.322919
-0.26642
-0.223896
-0.190918
-0.164575
-0.14286
-0.124315
-0.107842
-0.0925832
-0.0778389
-0.0630193
-0.0476032
-0.0311078
-0.0130621
0.00701905
0.0296612
0.0554629
0.0851372
0.119568
0.159894
0.207635
0.264901
0.334754
0.421858
0.533761
0.683748
0.897451
1.22411
1.75391
2.73326
5.06142
9.86893
)
;

boundaryField
{
    movingWall
    {
        type            zeroGradient;
    }
    fixedWalls
    {
        type            zeroGradient;
    }
    frontAndBack
    {
        type            empty;
    }
}


// ************************************************************************* //
