/*--------------------------------*- C++ -*----------------------------------*\
  =========                 |
  \\      /  F ield         | OpenFOAM: The Open Source CFD Toolbox
   \\    /   O peration     | Website:  https://openfoam.org
    \\  /    A nd           | Version:  7
     \\/     M anipulation  |
\*---------------------------------------------------------------------------*/
FoamFile
{
    version     2.0;
    format      ascii;
    class       volScalarField;
    location    "0.4375";
    object      p;
}
// * * * * * * * * * * * * * * * * * * * * * * * * * * * * * * * * * * * * * //

dimensions      [0 2 -2 0 0 0 0];

internalField   nonuniform List<scalar> 
25600
(
3.85635e-06
0.000118452
0.00014778
3.96712e-05
-0.000213615
-0.000608
-0.00113248
-0.00177253
-0.00251269
-0.00333773
-0.00423314
-0.00518533
-0.00618167
-0.00721053
-0.00826119
-0.0093238
-0.0103894
-0.0114496
-0.0124969
-0.0135244
-0.0145257
-0.0154951
-0.0164273
-0.0173174
-0.0181611
-0.0189545
-0.0196939
-0.0203762
-0.0209985
-0.0215581
-0.0220529
-0.0224808
-0.02284
-0.0231291
-0.0233467
-0.0234919
-0.0235638
-0.0235617
-0.0234852
-0.023334
-0.0231079
-0.022807
-0.0224314
-0.0219815
-0.0214578
-0.0208607
-0.0201912
-0.0194499
-0.0186378
-0.0177559
-0.0168055
-0.0157878
-0.014704
-0.0135557
-0.0123444
-0.0110716
-0.00973901
-0.00834845
-0.00690171
-0.00540068
-0.00384733
-0.00224369
-0.00059184
0.00110607
0.00284784
0.00463122
0.00645389
0.00831352
0.0102077
0.0121339
0.0140898
0.0160728
0.0180803
0.0201097
0.0221584
0.0242238
0.0263031
0.0283936
0.0304927
0.0325975
0.0347053
0.0368133
0.0389187
0.0410187
0.0431104
0.0451912
0.0472582
0.0493085
0.0513394
0.053348
0.0553317
0.0572877
0.0592132
0.0611055
0.062962
0.06478
0.0665569
0.0682902
0.0699774
0.071616
0.0732036
0.0747379
0.0762167
0.0776376
0.0789987
0.0802979
0.0815332
0.0827028
0.083805
0.084838
0.0858004
0.0866907
0.0875077
0.0882501
0.0889171
0.0895075
0.0900208
0.0904563
0.0908136
0.0910925
0.0912928
0.0914147
0.0914584
0.0914246
0.0913137
0.0911268
0.090865
0.0905297
0.0901225
0.0896452
0.0891
0.0884893
0.0878159
0.0870826
0.086293
0.0854505
0.0845594
0.0836239
0.0826488
0.0816395
0.0806016
0.0795413
0.0784652
0.0773805
0.0762953
0.0752178
0.0741573
0.0731236
0.0721275
0.0711804
0.0702947
0.0694837
0.0687611
0.0681416
0.0676394
0.0672678
0.067036
0.0669457
0.0669861
0.0671014
-0.000104926
7.29751e-06
1.16374e-05
-0.000109233
-0.000351289
-0.000712801
-0.00118718
-0.00176399
-0.00243129
-0.00317671
-0.00398802
-0.00485338
-0.00576159
-0.00670211
-0.00766507
-0.00864134
-0.00962244
-0.0106005
-0.0115684
-0.0125194
-0.0134474
-0.0143468
-0.0152124
-0.0160396
-0.016824
-0.0175619
-0.0182495
-0.0188838
-0.0194618
-0.0199809
-0.0204389
-0.0208338
-0.0211638
-0.0214272
-0.0216229
-0.0217497
-0.0218067
-0.0217932
-0.0217087
-0.0215529
-0.0213254
-0.0210264
-0.0206559
-0.0202142
-0.0197017
-0.0191188
-0.0184663
-0.0177448
-0.0169553
-0.0160988
-0.0151762
-0.0141888
-0.0131379
-0.0120248
-0.0108509
-0.00961785
-0.00832713
-0.00698047
-0.0055796
-0.00412636
-0.00262262
-0.00107033
0.00052849
0.00217179
0.00385744
0.00558327
0.00734705
0.00914651
0.0109793
0.0128431
0.0147356
0.0166541
0.0185964
0.0205598
0.0225418
0.0245399
0.0265514
0.0285737
0.0306042
0.0326403
0.0346791
0.0367181
0.0387546
0.0407857
0.0428089
0.0448214
0.0468205
0.0488034
0.0507675
0.0527101
0.0546284
0.05652
0.0583821
0.060212
0.0620074
0.0637655
0.065484
0.0671603
0.0687921
0.070377
0.0719127
0.0733969
0.0748276
0.0762026
0.0775198
0.0787774
0.0799736
0.0811064
0.0821744
0.0831759
0.0841095
0.0849739
0.0857678
0.0864901
0.08714
0.0877167
0.0882193
0.0886475
0.0890008
0.0892792
0.0894825
0.0896109
0.0896648
0.0896447
0.0895513
0.0893856
0.0891489
0.0888423
0.0884677
0.0880269
0.0875219
0.0869553
0.0863298
0.0856482
0.0849139
0.0841305
0.083302
0.0824327
0.0815272
0.0805907
0.0796286
0.078647
0.0776522
0.0766511
0.0756513
0.0746607
0.0736878
0.0727419
0.0718328
0.0709708
0.0701669
0.0694325
0.0687793
0.0682189
0.0677624
0.067419
0.0671941
0.0670876
0.0671015
0.0672169
-0.000133119
3.42524e-06
7.78357e-06
-0.000114349
-0.000346479
-0.000685522
-0.00112601
-0.00165921
-0.00227506
-0.00296309
-0.00371263
-0.00451323
-0.0053548
-0.00622773
-0.00712296
-0.00803195
-0.00894675
-0.00985994
-0.0107647
-0.0116545
-0.0125237
-0.0133666
-0.0141785
-0.0149546
-0.0156908
-0.0163833
-0.0170285
-0.0176233
-0.018165
-0.0186508
-0.0190785
-0.0194461
-0.0197517
-0.0199939
-0.0201713
-0.0202828
-0.0203274
-0.0203044
-0.0202132
-0.0200535
-0.0198249
-0.0195275
-0.0191612
-0.0187263
-0.0182231
-0.0176521
-0.0170138
-0.016309
-0.0155385
-0.0147031
-0.013804
-0.0128421
-0.0118188
-0.0107353
-0.00959295
-0.00839327
-0.00713778
-0.00582808
-0.00446587
-0.00305289
-0.00159096
-8.19639e-05
0.00147216
0.0030694
0.00470772
0.00638501
0.00809911
0.00984782
0.0116289
0.01344
0.0152789
0.0171431
0.0190303
0.0209381
0.0228638
0.0248051
0.0267595
0.0287243
0.030697
0.032675
0.0346558
0.0366367
0.038615
0.0405882
0.0425535
0.0445085
0.0464504
0.0483766
0.0502845
0.0521714
0.0540349
0.0558722
0.057681
0.0594586
0.0612025
0.0629104
0.0645797
0.0662082
0.0677935
0.0693333
0.0708254
0.0722677
0.073658
0.0749945
0.076275
0.0774978
0.0786612
0.0797633
0.0808027
0.0817779
0.0826874
0.0835301
0.0843047
0.0850104
0.0856461
0.0862112
0.086705
0.087127
0.0874771
0.087755
0.0879607
0.0880946
0.0881568
0.0881481
0.0880692
0.0879211
0.0877049
0.0874221
0.0870743
0.0866634
0.0861915
0.0856611
0.0850746
0.0844352
0.0837461
0.0830107
0.082233
0.0814172
0.0805678
0.0796898
0.0787885
0.0778696
0.0769393
0.0760041
0.0750713
0.0741483
0.0732432
0.0723644
0.0715211
0.0707226
0.0699788
0.0692998
0.0686957
0.0681763
0.067751
0.0674275
0.0672103
0.0671012
0.0671153
0.0672575
-2.52808e-05
0.000124476
0.000130392
8.34391e-06
-0.000217857
-0.000543133
-0.000961765
-0.00146555
-0.00204546
-0.00269212
-0.00339601
-0.00414774
-0.00493812
-0.00575837
-0.0066001
-0.00745537
-0.00831672
-0.00917716
-0.0100302
-0.0108697
-0.01169
-0.012486
-0.0132528
-0.013986
-0.0146814
-0.0153355
-0.0159447
-0.016506
-0.0170165
-0.0174737
-0.0178754
-0.0182195
-0.0185043
-0.0187281
-0.0188897
-0.0189879
-0.0190218
-0.0189905
-0.0188936
-0.0187305
-0.0185009
-0.0182049
-0.0178423
-0.0174134
-0.0169184
-0.0163578
-0.015732
-0.0150419
-0.014288
-0.0134713
-0.0125928
-0.0116534
-0.0106544
-0.00959696
-0.00848245
-0.00731225
-0.00608784
-0.00481078
-0.0034827
-0.00210528
-0.000680293
0.000790446
0.00230505
0.00386159
0.00545807
0.00709244
0.00876262
0.0104664
0.0122018
0.0139663
0.0157578
0.017574
0.0194125
0.021271
0.023147
0.0250382
0.026942
0.0288559
0.0307776
0.0327044
0.0346338
0.0365633
0.0384903
0.0404122
0.0423266
0.0442308
0.0461222
0.0479983
0.0498566
0.0516946
0.0535096
0.0552992
0.057061
0.0587924
0.0604911
0.0621547
0.0637808
0.0653672
0.0669116
0.0684118
0.0698657
0.0712711
0.0726261
0.0739287
0.075177
0.0763694
0.077504
0.0785792
0.0795936
0.0805457
0.0814342
0.0822579
0.0830157
0.0837067
0.08433
0.084885
0.085371
0.0857878
0.0861349
0.0864124
0.0866202
0.0867586
0.0868281
0.0868292
0.0867627
0.0866296
0.0864311
0.0861686
0.0858437
0.0854584
0.0850147
0.0845149
0.0839618
0.0833581
0.0827071
0.0820122
0.0812772
0.0805062
0.0797035
0.0788741
0.078023
0.0771557
0.0762781
0.0753965
0.0745176
0.0736485
0.0727968
0.0719704
0.0711777
0.0704272
0.0697279
0.069089
0.0685194
0.068028
0.0676232
0.0673124
0.0671004
0.0669915
0.0670088
0.0671679
0.00022733
0.000366661
0.000363046
0.000235149
8.87817e-06
-0.000309451
-0.000713835
-0.00119644
-0.00174896
-0.00236291
-0.00302973
-0.0037409
-0.00448809
-0.00526324
-0.00605862
-0.00686688
-0.00768105
-0.00849456
-0.00930124
-0.0100953
-0.0108715
-0.0116247
-0.0123503
-0.0130441
-0.0137021
-0.0143207
-0.0148966
-0.0154267
-0.0159083
-0.0163389
-0.0167162
-0.0170384
-0.0173036
-0.0175102
-0.017657
-0.0177428
-0.0177665
-0.0177275
-0.0176251
-0.0174589
-0.0172285
-0.0169338
-0.0165748
-0.0161516
-0.0156646
-0.0151139
-0.0145003
-0.0138241
-0.0130863
-0.0122875
-0.0114287
-0.010511
-0.0095353
-0.00850295
-0.00741516
-0.0062733
-0.00507878
-0.0038331
-0.00253784
-0.00119464
0.000194815
0.00162875
0.00310533
0.0046227
0.0061789
0.00777197
0.00939986
0.0110605
0.0127517
0.0144714
0.0162174
0.0179873
0.019779
0.0215901
0.0234182
0.0252611
0.0271162
0.0289813
0.0308538
0.0327313
0.0346113
0.0364914
0.038369
0.0402418
0.0421071
0.0439625
0.0458054
0.0476335
0.0494442
0.051235
0.0530035
0.0547473
0.056464
0.0581512
0.0598065
0.0614277
0.0630124
0.0645585
0.0660637
0.067526
0.0689432
0.0703133
0.0716345
0.0729047
0.0741223
0.0752855
0.0763926
0.0774421
0.0784326
0.0793627
0.0802311
0.0810367
0.0817784
0.0824554
0.0830669
0.0836122
0.0840909
0.0845024
0.0848467
0.0851237
0.0853334
0.0854761
0.0855522
0.0855624
0.0855075
0.0853884
0.0852064
0.0849629
0.0846594
0.0842978
0.0838803
0.083409
0.0828866
0.082316
0.0817001
0.0810424
0.0803465
0.0796165
0.0788564
0.0780711
0.0772653
0.0764444
0.0756139
0.0747798
0.0739485
0.0731266
0.0723212
0.0715397
0.0707897
0.0700791
0.0694161
0.0688089
0.0682658
0.0677948
0.0674036
0.0670994
0.0668876
0.0667738
0.066784
0.0669371
0.000620928
0.000728498
0.0007029
0.000561226
0.000327641
8.95495e-06
-0.000388727
-0.000857981
-0.00139114
-0.0019805
-0.00261829
-0.00329678
-0.00400839
-0.00474574
-0.00550172
-0.00626954
-0.0070427
-0.00781507
-0.00858085
-0.00933461
-0.0100713
-0.010786
-0.0114745
-0.0121326
-0.0127565
-0.0133427
-0.013888
-0.0143895
-0.0148444
-0.0152505
-0.0156054
-0.0159073
-0.0161543
-0.016345
-0.016478
-0.0165522
-0.0165666
-0.0165204
-0.016413
-0.0162439
-0.0160128
-0.0157196
-0.0153641
-0.0149465
-0.014467
-0.0139259
-0.0133237
-0.012661
-0.0119385
-0.0111568
-0.0103169
-0.00941978
-0.00846644
-0.00745804
-0.0063958
-0.00528101
-0.00411506
-0.00289939
-0.00163551
-0.000325016
0.00103045
0.00242917
0.00386939
0.00534928
0.00686696
0.0084205
0.0100079
0.0116272
0.0132763
0.0149531
0.0166555
0.0183812
0.020128
0.0218938
0.0236761
0.0254728
0.0272814
0.0290997
0.0309252
0.0327556
0.0345884
0.0364213
0.0382518
0.0400775
0.0418959
0.0437047
0.0455014
0.0472836
0.0490488
0.0507947
0.0525189
0.054219
0.0558927
0.0575377
0.0591517
0.0607324
0.0622777
0.0637853
0.0652533
0.0666794
0.0680618
0.0693984
0.0706874
0.0719269
0.0731152
0.0742507
0.0753317
0.0763568
0.0773246
0.0782338
0.0790831
0.0798715
0.080598
0.0812617
0.0818619
0.082398
0.0828695
0.0832761
0.0836176
0.083894
0.0841053
0.0842519
0.0843341
0.0843527
0.0843085
0.0842023
0.0840355
0.0838094
0.0835256
0.0831859
0.0827924
0.0823472
0.081853
0.0813125
0.0807287
0.0801048
0.0794444
0.0787513
0.0780296
0.0772838
0.0765184
0.0757386
0.0749497
0.0741572
0.0733672
0.0725859
0.0718198
0.0710759
0.0703611
0.0696828
0.0690484
0.0684653
0.067941
0.0674829
0.0670983
0.0667941
0.0665758
0.0664498
0.0664409
0.0665671
0.00114499
0.00120383
0.00114489
0.000981233
0.000732788
0.000406326
7.88023e-06
-0.000455632
-0.000977178
-0.00154972
-0.0021662
-0.00281962
-0.00350305
-0.00420976
-0.00493322
-0.00566713
-0.00640549
-0.00714257
-0.00787296
-0.00859154
-0.00929349
-0.00997431
-0.0106298
-0.011256
-0.0118494
-0.0124065
-0.0129242
-0.0133998
-0.0138307
-0.0142144
-0.0145489
-0.0148322
-0.0150627
-0.0152388
-0.0153592
-0.0154228
-0.0154287
-0.0153759
-0.015264
-0.0150924
-0.0148608
-0.014569
-0.014217
-0.0138047
-0.0133324
-0.0128005
-0.0122092
-0.0115593
-0.0108512
-0.0100858
-0.00926381
-0.00838623
-0.00745405
-0.00646836
-0.00543034
-0.00434123
-0.00320237
-0.00201515
-0.000781041
0.000498421
0.00182164
0.00318696
0.00459267
0.006037
0.00751812
0.00903416
0.0105832
0.0121633
0.0137724
0.0154084
0.0170694
0.0187531
0.0204574
0.0221801
0.0239191
0.0256719
0.0274364
0.0292103
0.0309913
0.032777
0.034565
0.0363532
0.038139
0.0399201
0.0416942
0.0434589
0.0452117
0.0469504
0.0486726
0.050376
0.0520583
0.0537171
0.0553501
0.0569552
0.0585301
0.0600727
0.0615807
0.0630521
0.0644849
0.065877
0.0672264
0.0685314
0.06979
0.0710006
0.0721613
0.0732707
0.0743271
0.0753293
0.0762757
0.0771651
0.0779965
0.0787686
0.0794807
0.0801319
0.0807215
0.0812489
0.0817137
0.0821155
0.0824543
0.0827299
0.0829426
0.0830925
0.0831803
0.0832065
0.0831719
0.0830775
0.0829245
0.0827142
0.0824482
0.0821284
0.0817566
0.0813351
0.0808663
0.0803529
0.0797978
0.0792042
0.0785754
0.0779152
0.0772274
0.0765163
0.0757864
0.0750423
0.0742892
0.0735324
0.0727774
0.0720301
0.0712965
0.0705831
0.0698962
0.0692427
0.0686293
0.0680628
0.06755
0.0670977
0.0667126
0.0664014
0.0661696
0.0660235
0.0659845
0.0660669
0.00178572
0.00178285
0.00168081
0.00148747
0.00121696
0.000875707
0.000469536
4.7664e-06
-0.00051221
-0.001075
-0.0016772
-0.00231246
-0.00297447
-0.0036571
-0.00435433
-0.00506039
-0.00576971
-0.00647698
-0.00717713
-0.00786538
-0.0085372
-0.00918832
-0.00981478
-0.0104128
-0.010979
-0.0115102
-0.0120033
-0.0124556
-0.0128647
-0.0132283
-0.0135443
-0.0138108
-0.0140263
-0.0141891
-0.0142981
-0.0143522
-0.0143503
-0.0142917
-0.0141758
-0.014002
-0.0137701
-0.0134799
-0.0131311
-0.012724
-0.0122587
-0.0117354
-0.0111546
-0.0105168
-0.00982246
-0.00907242
-0.00826744
-0.0074084
-0.00649627
-0.00553211
-0.00451703
-0.00345226
-0.00233908
-0.00117883
2.70603e-05
0.00127711
0.00256976
0.00390342
0.00527641
0.00668701
0.00813347
0.00961395
0.0111266
0.0126695
0.0142406
0.0158381
0.0174598
0.0191037
0.0207677
0.0224497
0.0241474
0.0258587
0.0275814
0.0293133
0.0310521
0.0327954
0.0345411
0.0362869
0.0380304
0.0397694
0.0415015
0.0432244
0.0449358
0.0466334
0.0483149
0.0499781
0.0516207
0.0532405
0.0548352
0.0564026
0.0579407
0.0594472
0.06092
0.0623573
0.0637569
0.0651168
0.0664353
0.0677105
0.0689405
0.0701237
0.0712585
0.0723434
0.0733767
0.0743571
0.0752834
0.0761544
0.0769688
0.0777257
0.0784242
0.0790636
0.0796431
0.0801622
0.0806206
0.0810178
0.0813538
0.0816286
0.0818424
0.0819953
0.082088
0.0821209
0.082095
0.0820112
0.0818706
0.0816746
0.0814248
0.0811227
0.0807705
0.0803702
0.0799242
0.079435
0.0789055
0.0783387
0.0777379
0.0771066
0.0764486
0.0757677
0.0750684
0.0743551
0.0736325
0.0729057
0.0721799
0.0714604
0.0707531
0.0700636
0.0693981
0.0687626
0.0681633
0.0676065
0.0670984
0.0666453
0.0662531
0.0659282
0.0656759
0.0655023
0.0654235
0.0654489
0.00252854
0.00245436
0.00230133
0.00207153
0.00177243
0.00140999
0.000989746
0.000517365
-1.42141e-06
-0.000560843
-0.00115512
-0.00177848
-0.00242522
-0.00308974
-0.00376655
-0.00445033
-0.00513594
-0.00581847
-0.00649321
-0.00715567
-0.00780163
-0.00842708
-0.00902826
-0.00960164
-0.0101439
-0.0106521
-0.0111233
-0.011555
-0.0119446
-0.0122902
-0.0125895
-0.012841
-0.0130429
-0.0131938
-0.0132926
-0.013338
-0.0133292
-0.0132654
-0.0131459
-0.0129704
-0.0127384
-0.0124498
-0.0121044
-0.0117023
-0.0112436
-0.0107286
-0.0101577
-0.00953139
-0.00885017
-0.00811474
-0.00732587
-0.0064844
-0.00559127
-0.00464749
-0.00365416
-0.00261244
-0.00152358
-0.000388879
0.000790282
0.00201246
0.00327616
0.00457982
0.00592182
0.00730049
0.0087141
0.0101609
0.0116391
0.0131467
0.014682
0.0162428
0.0178274
0.0194336
0.0210594
0.0227028
0.0243615
0.0260335
0.0277167
0.0294087
0.0311075
0.0328109
0.0345165
0.0362222
0.0379257
0.0396248
0.0413172
0.0430006
0.0446729
0.0463317
0.0479748
0.0496001
0.0512053
0.0527882
0.0543467
0.0558786
0.0573819
0.0588544
0.0602942
0.0616992
0.0630675
0.0643973
0.0656866
0.0669337
0.0681369
0.0692944
0.0704048
0.0714665
0.0724781
0.0734382
0.0743456
0.0751991
0.0759976
0.0767402
0.0774259
0.0780541
0.0786241
0.0791354
0.0795876
0.0799804
0.0803137
0.0805875
0.080802
0.0809575
0.0810544
0.0810934
0.0810752
0.0810008
0.0808714
0.0806882
0.0804527
0.0801666
0.0798318
0.0794504
0.0790246
0.0785568
0.07805
0.0775068
0.0769305
0.0763244
0.075692
0.0750373
0.0743641
0.0736768
0.0729798
0.0722779
0.0715758
0.0708786
0.0701916
0.0695202
0.0688698
0.0682461
0.0676548
0.0671016
0.066592
0.0661318
0.0657265
0.0653817
0.0651025
0.0648948
0.0647682
0.0647269
0.00335926
0.00320691
0.00299671
0.00272474
0.00239137
0.00200207
0.00156207
0.00107635
0.000549998
-1.18285e-05
-0.000603927
-0.0012211
-0.00185818
-0.00251007
-0.00317177
-0.00383842
-0.00450527
-0.00516779
-0.00582161
-0.00646257
-0.00708671
-0.00769027
-0.00826974
-0.00882177
-0.00934328
-0.00983135
-0.0102833
-0.0106967
-0.0110691
-0.0113986
-0.0116832
-0.0119212
-0.0121111
-0.0122514
-0.012341
-0.0123787
-0.0123638
-0.0122954
-0.012173
-0.0119961
-0.0117642
-0.0114773
-0.0111352
-0.010738
-0.0102857
-0.00977869
-0.00921725
-0.00860185
-0.00793305
-0.00721147
-0.00643786
-0.00561303
-0.00473789
-0.00381341
-0.00284065
-0.00182074
-0.000754878
0.000355659
0.00150954
0.00270537
0.00394168
0.00521696
0.00652965
0.0078781
0.00926066
0.0106756
0.0121211
0.0135955
0.0150967
0.0166231
0.0181725
0.0197431
0.0213328
0.0229396
0.0245615
0.0261964
0.0278421
0.0294966
0.0311577
0.0328232
0.034491
0.0361588
0.0378246
0.039486
0.041141
0.0427872
0.0444225
0.0460447
0.0476517
0.0492412
0.0508112
0.0523594
0.0538838
0.0553823
0.0568528
0.0582934
0.0597021
0.0610768
0.0624158
0.0637171
0.064979
0.0661998
0.0673777
0.0685112
0.0695986
0.0706387
0.0716299
0.0725709
0.0734605
0.0742976
0.0750812
0.0758102
0.076484
0.0771017
0.0776627
0.0781665
0.0786128
0.0790013
0.0793319
0.0796046
0.0798196
0.0799772
0.0800778
0.080122
0.0801106
0.0800446
0.079925
0.0797531
0.0795304
0.0792584
0.078939
0.0785742
0.0781662
0.0777172
0.0772301
0.0767074
0.0761523
0.0755678
0.0749575
0.0743248
0.0736736
0.0730079
0.0723319
0.0716499
0.0709665
0.0702864
0.0696144
0.0689555
0.0683148
0.0676973
0.0671083
0.0665529
0.0660363
0.0655635
0.0651395
0.0647692
0.0644576
0.06421
0.0640294
0.0639142
0.00426451
0.00402924
0.00375719
0.0034384
0.00306596
0.00264486
0.00218008
0.00167594
0.00113687
0.000567445
-2.76736e-05
-0.000643822
-0.00127634
-0.00192062
-0.0025721
-0.00322635
-0.00387902
-0.00452592
-0.00516303
-0.00578648
-0.00639259
-0.00697785
-0.00753897
-0.00807281
-0.00857646
-0.00904719
-0.00948244
-0.00987985
-0.0102373
-0.0105527
-0.0108243
-0.0110504
-0.0112296
-0.0113606
-0.0114421
-0.0114731
-0.0114529
-0.0113806
-0.0112557
-0.0110776
-0.0108462
-0.0105611
-0.0102224
-0.00982985
-0.00938377
-0.00888436
-0.00833194
-0.00772694
-0.00706991
-0.00636146
-0.0056023
-0.00479321
-0.00393507
-0.00302882
-0.0020755
-0.00107619
-3.20566e-05
0.00105566
0.00218567
0.00335661
0.00456706
0.00581556
0.00710056
0.0084205
0.00977373
0.0111586
0.0125733
0.0140162
0.0154854
0.0169791
0.0184954
0.0200323
0.021588
0.0231604
0.0247475
0.0263473
0.0279578
0.0295768
0.0312024
0.0328322
0.0344644
0.0360966
0.0377268
0.0393528
0.0409724
0.0425836
0.0441842
0.045772
0.0473449
0.0489008
0.0504376
0.0519533
0.0534457
0.0549128
0.0563526
0.0577632
0.0591426
0.060489
0.0618004
0.0630751
0.0643113
0.0655074
0.0666617
0.0677726
0.0688386
0.0698584
0.0708304
0.0717536
0.0726266
0.0734484
0.0742179
0.0749343
0.0755968
0.0762045
0.0767571
0.0772538
0.0776945
0.0780788
0.0784067
0.0786782
0.0788934
0.0790526
0.0791563
0.0792051
0.0791996
0.0791409
0.0790299
0.078868
0.0786564
0.0783967
0.0780908
0.0777405
0.0773478
0.0769152
0.076445
0.07594
0.0754028
0.0748367
0.0742448
0.0736305
0.0729973
0.072349
0.0716896
0.0710231
0.0703537
0.0696859
0.069024
0.0683726
0.0677364
0.06712
0.0665282
0.0659656
0.0654368
0.0649463
0.0644987
0.0640981
0.0637493
0.0634572
0.0632178
0.0630238
0.00523195
0.00491061
0.00457326
0.00420395
0.00378844
0.00333135
0.00283745
0.0023104
0.00175403
0.00117238
0.000569574
-5.02152e-05
-0.000682805
-0.00132403
-0.00196977
-0.00261597
-0.00325867
-0.00389402
-0.00451832
-0.00512799
-0.00571962
-0.00628995
-0.00683589
-0.00735452
-0.00784311
-0.00829908
-0.00872004
-0.00910375
-0.00944815
-0.00975137
-0.0100117
-0.0102275
-0.0103974
-0.0105202
-0.0105947
-0.0106199
-0.0105951
-0.0105196
-0.0103926
-0.0102139
-0.00998314
-0.00970004
-0.00936455
-0.00897668
-0.00853657
-0.00804444
-0.00750061
-0.00690551
-0.00625965
-0.00556362
-0.00481811
-0.00402389
-0.0031818
-0.00229276
-0.00135777
-0.000377887
0.000645756
0.00171196
0.00281946
0.00396695
0.00515303
0.00637628
0.0076352
0.00892826
0.0102539
0.0116104
0.0129961
0.0144094
0.0158484
0.0173113
0.0187963
0.0203016
0.0218252
0.0233652
0.0249196
0.0264864
0.0280637
0.0296494
0.0312415
0.0328378
0.0344364
0.0360351
0.0376319
0.0392246
0.0408112
0.0423895
0.0439574
0.0455129
0.0470539
0.0485783
0.050084
0.0515691
0.0530315
0.0544692
0.0558802
0.0572628
0.0586148
0.0599346
0.0612203
0.0624701
0.0636823
0.0648553
0.0659875
0.0670774
0.0681234
0.0691241
0.0700784
0.0709848
0.0718423
0.0726498
0.0734062
0.0741108
0.0747626
0.0753611
0.0759056
0.0763957
0.076831
0.0772113
0.0775365
0.0778066
0.0780217
0.0781822
0.0782884
0.078341
0.0783406
0.0782882
0.0781847
0.0780313
0.0778293
0.0775803
0.077286
0.0769481
0.0765687
0.0761499
0.0756941
0.0752039
0.0746818
0.0741308
0.073554
0.0729544
0.0723356
0.0717009
0.0710541
0.0703989
0.0697393
0.0690792
0.0684229
0.0677745
0.0671382
0.0665182
0.0659189
0.0653444
0.0647989
0.0642864
0.0638108
0.0633757
0.0629857
0.0626453
0.0623436
0.0620674
0.00625024
0.00584092
0.00543582
0.00501312
0.0045513
0.0040547
0.00352794
0.00297409
0.0023964
0.0017984
0.00118374
0.000556118
-8.0724e-05
-0.00072304
-0.00136711
-0.00200925
-0.00264586
-0.00327343
-0.00388853
-0.00448789
-0.00506835
-0.00562689
-0.00616063
-0.00666687
-0.00714303
-0.00758671
-0.00799566
-0.00836778
-0.00870114
-0.00899395
-0.00924459
-0.00945156
-0.00961353
-0.0097293
-0.00979782
-0.00981816
-0.00978953
-0.00971127
-0.00958284
-0.00940382
-0.00917389
-0.00889288
-0.0085607
-0.00817737
-0.00774302
-0.00725787
-0.00672223
-0.00613651
-0.00550122
-0.00481694
-0.00408433
-0.00330413
-0.00247717
-0.00160434
-0.000686607
0.000274991
0.00127936
0.00232532
0.00341165
0.00453708
0.00570024
0.00689974
0.00813414
0.00940193
0.0107016
0.0120314
0.0133899
0.0147753
0.0161859
0.01762
0.0190756
0.0205512
0.0220446
0.0235542
0.0250778
0.0266137
0.0281599
0.0297143
0.0312749
0.0328398
0.034407
0.0359743
0.0375397
0.0391012
0.0406567
0.0422042
0.0437416
0.0452669
0.0467779
0.0482728
0.0497495
0.051206
0.0526404
0.0540506
0.0554348
0.0567911
0.0581177
0.0594127
0.0606744
0.061901
0.0630908
0.0642424
0.065354
0.0664242
0.0674515
0.0684347
0.0693723
0.0702632
0.0711062
0.0719004
0.0726446
0.0733381
0.0739801
0.0745698
0.0751068
0.0755906
0.0760208
0.0763972
0.0767197
0.0769883
0.0772031
0.0773644
0.0774727
0.0775284
0.0775323
0.0774851
0.0773879
0.0772418
0.0770481
0.0768081
0.0765236
0.0761962
0.0758279
0.0754207
0.0749768
0.0744988
0.073989
0.0734502
0.0728853
0.0722972
0.0716892
0.0710645
0.0704266
0.0697788
0.0691249
0.0684687
0.0678138
0.0671641
0.0665235
0.0658957
0.0652848
0.0646943
0.0641281
0.0635897
0.0630823
0.0626092
0.0621747
0.0617831
0.0614164
0.0610559
0.00730907
0.00681077
0.0063363
0.00585802
0.00534731
0.00480828
0.0042455
0.00366149
0.00305896
0.00244099
0.00181077
0.00117156
0.000526699
-0.000120459
-0.000766563
-0.00140829
-0.00204238
-0.00266561
-0.00327487
-0.00386713
-0.0044395
-0.00498918
-0.00551352
-0.00600999
-0.00647621
-0.00690992
-0.00730903
-0.00767158
-0.00799575
-0.00827986
-0.00852238
-0.00872191
-0.00887718
-0.00898708
-0.0090506
-0.00906687
-0.00903515
-0.0089548
-0.00882532
-0.00864631
-0.00841749
-0.00813869
-0.00780982
-0.00743093
-0.00700214
-0.00652366
-0.00599582
-0.00541901
-0.00479372
-0.00412052
-0.00340006
-0.00263307
-0.00182034
-0.000962742
-6.12271e-05
0.000883199
0.00186946
0.00289643
0.0039629
0.00506762
0.00620928
0.00738651
0.0085979
0.00984199
0.0111173
0.0124221
0.0137551
0.0151143
0.0164983
0.0179053
0.0193335
0.0207811
0.0222464
0.0237274
0.0252223
0.0267292
0.0282461
0.0297713
0.0313025
0.032838
0.0343757
0.0359137
0.0374498
0.0389821
0.0405087
0.0420274
0.0435363
0.0450333
0.0465165
0.0479839
0.0494335
0.0508634
0.0522716
0.0536563
0.0550155
0.0563475
0.0576503
0.0589222
0.0601616
0.0613666
0.0625357
0.0636673
0.0647598
0.0658118
0.0668219
0.0677887
0.0687109
0.0695874
0.070417
0.0711988
0.0719317
0.0726149
0.0732476
0.0738293
0.0743592
0.074837
0.0752624
0.075635
0.0759548
0.0762218
0.0764361
0.0765979
0.0767077
0.0767659
0.0767732
0.0767305
0.0766385
0.0764985
0.0763116
0.0760792
0.0758028
0.0754841
0.0751248
0.074727
0.0742928
0.0738244
0.0733243
0.0727949
0.072239
0.0716594
0.071059
0.070441
0.0698084
0.0691645
0.0685128
0.0678565
0.0671993
0.0665445
0.0658958
0.0652565
0.0646301
0.06402
0.0634295
0.0628618
0.0623195
0.0618054
0.0613238
0.0608787
0.0604453
0.0599993
0.00839906
0.00781148
0.00726661
0.00673119
0.00616957
0.00558575
0.0049843
0.00436724
0.00373683
0.0030957
0.00244663
0.00179249
0.00113624
0.000480859
-0.000170646
-0.000815281
-0.00145009
-0.00207216
-0.00267865
-0.00326679
-0.00383393
-0.00437749
-0.00489502
-0.00538419
-0.00584279
-0.00626873
-0.00666004
-0.00701492
-0.00733165
-0.00760867
-0.00784455
-0.00803798
-0.00818776
-0.00829286
-0.00835232
-0.00836532
-0.00833118
-0.00824931
-0.00811922
-0.00794056
-0.00771307
-0.00743658
-0.00711104
-0.00673649
-0.00631306
-0.00584098
-0.00532055
-0.00475217
-0.00413632
-0.00347356
-0.00276453
-0.00200993
-0.00121055
-0.000367245
0.000519072
0.00144741
0.00241673
0.00342591
0.00447378
0.00555913
0.00668067
0.00783707
0.00902694
0.0102489
0.0115013
0.0127829
0.0140919
0.0154268
0.0167859
0.0181675
0.01957
0.0209916
0.0224305
0.0238849
0.0253529
0.0268327
0.0283225
0.0298203
0.0313242
0.0328322
0.0343425
0.035853
0.0373619
0.0388671
0.0403666
0.0418586
0.0433409
0.0448117
0.046269
0.0477109
0.0491353
0.0505405
0.0519245
0.0532854
0.0546215
0.0559308
0.0572116
0.0584623
0.0596809
0.060866
0.0620159
0.0631291
0.064204
0.0652391
0.0662332
0.0671849
0.0680929
0.0689561
0.0697734
0.0705437
0.0712661
0.0719398
0.072564
0.0731381
0.0736614
0.0741337
0.0745544
0.0749234
0.0752406
0.0755059
0.0757194
0.0758814
0.0759922
0.0760523
0.0760624
0.0760232
0.0759355
0.0758004
0.075619
0.0753927
0.0751228
0.0748111
0.074459
0.0740687
0.0736419
0.0731809
0.0726879
0.0721653
0.0716157
0.0710417
0.0704459
0.0698314
0.069201
0.0685578
0.0679048
0.0672452
0.0665821
0.0659188
0.0652584
0.0646042
0.0639591
0.0633262
0.0627083
0.0621083
0.0615285
0.060971
0.0604401
0.0599398
0.0594386
0.0589065
0.00951172
0.00883504
0.00821927
0.00762558
0.00701151
0.00638101
0.00573869
0.00508616
0.00442524
0.00375817
0.00308737
0.00241534
0.00174468
0.00107803
0.000418092
-0.000232463
-0.000870963
-0.00149478
-0.00210133
-0.00268809
-0.00325264
-0.00379261
-0.00430576
-0.00478993
-0.00524308
-0.00566328
-0.00604873
-0.00639771
-0.00670867
-0.00698013
-0.00721076
-0.00739935
-0.00754479
-0.00764609
-0.00770237
-0.00771289
-0.00767699
-0.00759412
-0.00746385
-0.00728585
-0.00705989
-0.00678582
-0.0064636
-0.00609329
-0.00567503
-0.00520904
-0.00469565
-0.00413523
-0.00352828
-0.00287533
-0.00217702
-0.00143404
-0.000647151
0.000182799
0.00105492
0.00196823
0.00292172
0.0039143
0.00494483
0.00601211
0.00711488
0.00825185
0.00942167
0.0106229
0.0118542
0.0131139
0.0144007
0.0157128
0.0170488
0.0184068
0.0197854
0.0211827
0.0225971
0.0240266
0.0254697
0.0269243
0.0283888
0.0298612
0.0313396
0.0328222
0.034307
0.0357921
0.0372756
0.0387556
0.0402301
0.0416972
0.043155
0.0446015
0.0460348
0.047453
0.0488542
0.0502365
0.0515981
0.0529372
0.0542518
0.0555403
0.0568009
0.0580318
0.0592315
0.0603982
0.0615305
0.0626266
0.0636853
0.064705
0.0656844
0.0666222
0.0675172
0.0683681
0.069174
0.0699338
0.0706466
0.0713115
0.0719279
0.072495
0.0730123
0.0734793
0.0738957
0.0742612
0.0745758
0.0748393
0.0750519
0.0752137
0.0753252
0.0753867
0.0753988
0.0753623
0.0752779
0.0751467
0.0749696
0.074748
0.0744833
0.0741768
0.0738302
0.0734453
0.073024
0.0725682
0.07208
0.0715619
0.071016
0.0704448
0.069851
0.0692371
0.068606
0.0679603
0.067303
0.0666369
0.0659649
0.0652899
0.0646149
0.0639426
0.0632759
0.0626173
0.0619694
0.0613346
0.0607149
0.060112
0.0595303
0.0589736
0.0584039
0.0577859
0.0106393
0.0098741
0.00918729
0.00853463
0.00786697
0.00718829
0.00650332
0.00581327
0.00511959
0.00442417
0.0037291
0.00303656
0.0023488
0.00166817
0.000997061
0.000337862
-0.00030703
-0.000935242
-0.00154444
-0.00213235
-0.00269674
-0.00323547
-0.00374647
-0.00422778
-0.00467752
-0.0050939
-0.00547526
-0.00582004
-0.00612677
-0.0063941
-0.00662081
-0.00680575
-0.00694791
-0.00704637
-0.00710033
-0.00710908
-0.00707202
-0.00698866
-0.00685861
-0.00668156
-0.00645731
-0.00618574
-0.00586684
-0.00550066
-0.00508737
-0.0046272
-0.00412046
-0.00356756
-0.00296896
-0.0023252
-0.00163691
-0.000904771
-0.000129539
0.000687966
0.00154686
0.00244619
0.00338497
0.00436211
0.00537651
0.00642699
0.00751233
0.00863125
0.00978243
0.0109645
0.012176
0.0134156
0.0146816
0.0159727
0.0172871
0.0186233
0.0199797
0.0213545
0.0227461
0.0241527
0.0255726
0.0270039
0.0284449
0.0298938
0.0313486
0.0328076
0.0342689
0.0357305
0.0371907
0.0386474
0.0400988
0.041543
0.0429781
0.0444022
0.0458134
0.0472098
0.0485896
0.0499509
0.0512919
0.0526108
0.0539058
0.0551752
0.0564171
0.0576301
0.0588123
0.0599622
0.0610783
0.062159
0.0632028
0.0642084
0.0651744
0.0660995
0.0669826
0.0678224
0.0686179
0.0693681
0.0700721
0.070729
0.0713381
0.0718988
0.0724105
0.0728727
0.073285
0.0736473
0.0739593
0.074221
0.0744325
0.074594
0.0747057
0.074768
0.0747816
0.074747
0.074665
0.0745366
0.0743628
0.0741447
0.0738836
0.0735809
0.0732381
0.0728569
0.0724391
0.0719865
0.0715011
0.070985
0.0704405
0.0698698
0.0692753
0.0686595
0.0680249
0.067374
0.0667095
0.0660341
0.0653504
0.064661
0.0639685
0.0632755
0.0625844
0.0618977
0.0612174
0.0605458
0.0598843
0.0592344
0.0586006
0.0579868
0.0573484
0.0566448
0.0117747
0.0109219
0.0101642
0.00945216
0.00873011
0.00800211
0.00727303
0.00654377
0.00581542
0.00508959
0.00436805
0.00365267
0.00294543
0.0022484
0.00156366
0.000893357
0.000239628
-0.000395398
-0.00100962
-0.00160097
-0.00216745
-0.0027071
-0.00321803
-0.00369846
-0.00414666
-0.004561
-0.00493996
-0.00528209
-0.00558605
-0.0058506
-0.00607461
-0.00625702
-0.00639691
-0.00649343
-0.00654584
-0.0065535
-0.00651587
-0.00643249
-0.00630302
-0.00612718
-0.00590481
-0.00563582
-0.00532021
-0.00495805
-0.00454953
-0.00409488
-0.00359443
-0.00304858
-0.00245779
-0.00182262
-0.00114366
-0.00042161
0.000342798
0.00114875
0.00199538
0.00288176
0.0038069