/*--------------------------------*- C++ -*----------------------------------*\
  =========                 |
  \\      /  F ield         | OpenFOAM: The Open Source CFD Toolbox
   \\    /   O peration     | Website:  https://openfoam.org
    \\  /    A nd           | Version:  7
     \\/     M anipulation  |
\*---------------------------------------------------------------------------*/
FoamFile
{
    version     2.0;
    format      ascii;
    class       surfaceScalarField;
    location    "0.4375";
    object      phi;
}
// * * * * * * * * * * * * * * * * * * * * * * * * * * * * * * * * * * * * * //

dimensions      [0 3 -1 0 0 0 0];

internalField   nonuniform List<scalar> 
50880
(
5.83955e-12
-6.38563e-12
3.61386e-11
-3.02991e-11
8.10783e-11
-4.49399e-11
1.30743e-10
-4.9665e-11
1.78008e-10
-4.7264e-11
2.179e-10
-3.98917e-11
2.46992e-10
-2.90921e-11
2.6297e-10
-1.5978e-11
2.64309e-10
-1.33792e-12
2.50042e-10
1.4268e-11
2.19609e-10
3.04339e-11
1.7275e-10
4.68607e-11
1.09426e-10
6.33245e-11
2.97703e-11
7.96557e-11
-6.59532e-11
9.57239e-11
-1.77381e-10
1.11428e-10
-3.0407e-10
1.26691e-10
-4.45518e-10
1.4145e-10
-6.01175e-10
1.55658e-10
-7.70454e-10
1.6928e-10
-9.5274e-10
1.82287e-10
-1.1474e-09
1.94657e-10
-1.35377e-09
2.06377e-10
-1.57121e-09
2.17433e-10
-1.79903e-09
2.2782e-10
-2.03656e-09
2.37532e-10
-2.28313e-09
2.46569e-10
-2.53806e-09
2.54931e-10
-2.80068e-09
2.6262e-10
-3.07032e-09
2.6964e-10
-3.34631e-09
2.75997e-10
-3.62801e-09
2.81698e-10
-3.91476e-09
2.8675e-10
-4.20592e-09
2.91162e-10
-4.50087e-09
2.94941e-10
-4.79896e-09
2.98099e-10
-5.09961e-09
3.00645e-10
-5.4022e-09
3.0259e-10
-5.70615e-09
3.03945e-10
-6.01087e-09
3.04721e-10
-6.3158e-09
3.0493e-10
-6.62038e-09
3.04584e-10
-6.92408e-09
3.03695e-10
-7.22635e-09
3.02275e-10
-7.52669e-09
3.00337e-10
-7.82459e-09
2.97892e-10
-8.11954e-09
2.94955e-10
-8.41108e-09
2.91538e-10
-8.69873e-09
2.87653e-10
-8.98205e-09
2.83313e-10
-9.26058e-09
2.78532e-10
-9.5339e-09
2.73322e-10
-9.8016e-09
2.67697e-10
-1.00633e-08
2.61669e-10
-1.03185e-08
2.55251e-10
-1.0567e-08
2.48457e-10
-1.08083e-08
2.413e-10
-1.10421e-08
2.33794e-10
-1.1268e-08
2.2595e-10
-1.14858e-08
2.17784e-10
-1.16951e-08
2.09307e-10
-1.18956e-08
2.00533e-10
-1.20871e-08
1.91477e-10
-1.22693e-08
1.8215e-10
-1.24418e-08
1.72568e-10
-1.26046e-08
1.62742e-10
-1.27573e-08
1.52688e-10
-1.28997e-08
1.42418e-10
-1.30316e-08
1.31947e-10
-1.31529e-08
1.21288e-10
-1.32634e-08
1.10456e-10
-1.33628e-08
9.9464e-11
-1.34512e-08
8.83271e-11
-1.35282e-08
7.70594e-11
-1.35939e-08
6.56753e-11
-1.36481e-08
5.41895e-11
-1.36907e-08
4.26165e-11
-1.37217e-08
3.09712e-11
-1.3741e-08
1.92686e-11
-1.37485e-08
7.52383e-12
-1.37442e-08
-4.2479e-12
-1.37282e-08
-1.60312e-11
-1.37004e-08
-2.78105e-11
-1.36608e-08
-3.95701e-11
-1.36095e-08
-5.12943e-11
-1.35466e-08
-6.2967e-11
-1.3472e-08
-7.45722e-11
-1.33859e-08
-8.60937e-11
-1.32884e-08
-9.75151e-11
-1.31796e-08
-1.0882e-10
-1.30596e-08
-1.19992e-10
-1.29286e-08
-1.31014e-10
-1.27867e-08
-1.41869e-10
-1.26342e-08
-1.52541e-10
-1.24711e-08
-1.63013e-10
-1.22979e-08
-1.73267e-10
-1.21146e-08
-1.83287e-10
-1.19215e-08
-1.93055e-10
-1.1719e-08
-2.02555e-10
-1.15072e-08
-2.11769e-10
-1.12865e-08
-2.2068e-10
-1.10573e-08
-2.29271e-10
-1.08197e-08
-2.37526e-10
-1.05743e-08
-2.45427e-10
-1.03214e-08
-2.52957e-10
-1.00613e-08
-2.60101e-10
-9.79442e-09
-2.6684e-10
-9.52126e-09
-2.7316e-10
-9.24221e-09
-2.79043e-10
-8.95774e-09
-2.84474e-10
-8.6683e-09
-2.89437e-10
-8.37439e-09
-2.93917e-10
-8.07649e-09
-2.97898e-10
-7.77512e-09
-3.01366e-10
-7.47082e-09
-3.04307e-10
-7.16411e-09
-3.06706e-10
-6.85556e-09
-3.08551e-10
-6.54573e-09
-3.09827e-10
-6.23521e-09
-3.10522e-10
-5.92458e-09
-3.10625e-10
-5.61446e-09
-3.10123e-10
-5.30545e-09
-3.09007e-10
-4.99819e-09
-3.07266e-10
-4.6933e-09
-3.0489e-10
-4.39143e-09
-3.01871e-10
-4.09323e-09
-2.98202e-10
-3.79935e-09
-2.93874e-10
-3.51047e-09
-2.88883e-10
-3.22725e-09
-2.83223e-10
-2.95035e-09
-2.76891e-10
-2.68047e-09
-2.69885e-10
-2.41827e-09
-2.62202e-10
-2.16443e-09
-2.53844e-10
-1.91961e-09
-2.44812e-10
-1.68451e-09
-2.3511e-10
-1.45976e-09
-2.24745e-10
-1.24604e-09
-2.13725e-10
-1.04397e-09
-2.02062e-10
-8.54204e-10
-1.89771e-10
-6.77335e-10
-1.7687e-10
-5.13953e-10
-1.63383e-10
-3.64615e-10
-1.49339e-10
-2.29841e-10
-1.34775e-10
-1.10107e-10
-1.19734e-10
-5.83295e-12
-1.04273e-10
8.26291e-11
-8.84617e-11
1.55013e-10
-7.23846e-11
2.11163e-10
-5.615e-11
2.51058e-10
-3.98954e-11
2.74857e-10
-2.37982e-11
2.82948e-10
-8.08919e-12
2.76019e-10
6.92856e-12
2.55168e-10
2.08488e-11
2.22052e-10
3.31141e-11
1.7911e-10
4.29443e-11
1.29867e-10
4.9247e-11
7.9345e-11
5.05264e-11
3.46129e-11
4.47316e-11
5.32433e-12
2.9282e-11
5.31787e-12
3.00063e-11
-3.63917e-11
1.0115e-10
-1.01442e-10
1.95439e-10
-1.39228e-10
2.95797e-10
-1.50022e-10
3.87863e-10
-1.3933e-10
4.604e-10
-1.12427e-10
5.04946e-10
-7.36375e-11
5.15315e-10
-2.63459e-11
4.87114e-10
2.68639e-11
4.17343e-10
8.40406e-11
3.04078e-10
1.437e-10
1.46234e-10
2.04707e-10
-5.66242e-11
2.66184e-10
-3.0442e-10
3.27453e-10
-5.96676e-10
3.87981e-10
-9.32595e-10
4.47348e-10
-1.31113e-09
5.05224e-10
-1.73102e-09
5.61347e-10
-2.19087e-09
6.15509e-10
-2.68914e-09
6.67547e-10
-3.22418e-09
7.17334e-10
-3.7943e-09
7.6477e-10
-4.3977e-09
8.09779e-10
-5.03257e-09
8.52305e-10
-5.69705e-09
8.92308e-10
-6.38928e-09
9.29761e-10
-7.10736e-09
9.64647e-10
-7.84939e-09
9.96962e-10
-8.61348e-09
1.02671e-09
-9.39773e-09
1.05389e-09
-1.02003e-08
1.07853e-09
-1.10192e-08
1.10064e-09
-1.18527e-08
1.12026e-09
-1.2699e-08
1.1374e-09
-1.35561e-08
1.15209e-09
-1.44224e-08
1.16438e-09
-1.52961e-08
1.1743e-09
-1.61753e-08
1.18189e-09
-1.70586e-08
1.18718e-09
-1.79441e-08
1.19022e-09
-1.88302e-08
1.19106e-09
-1.97154e-08
1.18973e-09
-2.0598e-08
1.18629e-09
-2.14765e-08
1.18078e-09
-2.23494e-08
1.17324e-09
-2.32152e-08
1.16373e-09
-2.40725e-08
1.15229e-09
-2.492e-08
1.13898e-09
-2.57562e-08
1.12383e-09
-2.65798e-08
1.10691e-09
-2.73895e-08
1.08826e-09
-2.81841e-08
1.06793e-09
-2.89624e-08
1.04598e-09
-2.97232e-08
1.02244e-09
-3.04653e-08
9.97386e-10
-3.11877e-08
9.70854e-10
-3.18893e-08
9.42898e-10
-3.25691e-08
9.13572e-10
-3.3226e-08
8.82925e-10
-3.38593e-08
8.51011e-10
-3.44679e-08
8.17882e-10
-3.50509e-08
7.8359e-10
-3.56076e-08
7.48188e-10
-3.61372e-08
7.11728e-10
-3.66389e-08
6.74264e-10
-3.7112e-08
6.35849e-10
-3.75558e-08
5.96537e-10
-3.79698e-08
5.56382e-10
-3.83533e-08
5.15438e-10
-3.87058e-08
4.7376e-10
-3.90267e-08
4.31403e-10
-3.93157e-08
3.88424e-10
-3.95722e-08
3.44876e-10
-3.9796e-08
3.00818e-10
-3.99866e-08
2.56306e-10
-4.01438e-08
2.11397e-10
-4.02674e-08
1.66149e-10
-4.0357e-08
1.20621e-10
-4.04126e-08
7.48705e-11
-4.0434e-08
2.8958e-11
-4.04212e-08
-1.7057e-11
-4.03742e-08
-6.31139e-11
-4.02928e-08
-1.09152e-10
-4.01773e-08
-1.55109e-10
-4.00277e-08
-2.00924e-10
-3.98441e-08
-2.46534e-10
-3.96268e-08
-2.91875e-10
-3.9376e-08
-3.36885e-10
-3.9092e-08
-3.815e-10
-3.87752e-08
-4.25654e-10
-3.84259e-08
-4.69283e-10
-3.80446e-08
-5.12322e-10
-3.76318e-08
-5.54705e-10
-3.71879e-08
-5.96366e-10
-3.67137e-08
-6.3724e-10
-3.62097e-08
-6.7726e-10
-3.56766e-08
-7.16359e-10
-3.51152e-08
-7.54471e-10
-3.45263e-08
-7.91529e-10
-3.39106e-08
-8.27467e-10
-3.3269e-08
-8.62218e-10
-3.26026e-08
-8.95717e-10
-3.19122e-08
-9.27896e-10
-3.11989e-08
-9.58691e-10
-3.04639e-08
-9.88036e-10
-2.97081e-08
-1.01587e-09
-2.89328e-08
-1.04212e-09
-2.81393e-08
-1.06673e-09
-2.73287e-08
-1.08964e-09
-2.65024e-08
-1.11078e-09
-2.56617e-08
-1.13009e-09
-2.48081e-08
-1.14752e-09
-2.3943e-08
-1.16301e-09
-2.30679e-08
-1.17649e-09
-2.21843e-08
-1.18792e-09
-2.12937e-08
-1.19724e-09
-2.03979e-08
-1.2044e-09
-1.94983e-08
-1.20935e-09
-1.85968e-08
-1.21205e-09
-1.7695e-08
-1.21244e-09
-1.67946e-08
-1.21048e-09
-1.58975e-08
-1.20614e-09
-1.50054e-08
-1.19938e-09
-1.41201e-08
-1.19016e-09
-1.32435e-08
-1.17845e-09
-1.23775e-08
-1.16422e-09
-1.1524e-08
-1.14745e-09
-1.06847e-08
-1.12813e-09
-9.86171e-09
-1.10622e-09
-9.05687e-09
-1.08173e-09
-8.2721e-09
-1.05465e-09
-7.50933e-09
-1.02498e-09
-6.77046e-09
-9.92718e-10
-6.05738e-09
-9.5789e-10
-5.37197e-09
-9.20514e-10
-4.7161e-09
-8.8062e-10
-4.09157e-09
-8.38253e-10
-3.50017e-09
-7.93465e-10
-2.94362e-09
-7.46326e-10
-2.42357e-09
-6.96921e-10
-1.94159e-09
-6.45355e-10
-1.49918e-09
-5.91758e-10
-1.09767e-09
-5.36286e-10
-7.38269e-10
-4.79132e-10
-4.22009e-10
-4.20534e-10
-1.4969e-10
-3.60781e-10
7.81581e-11
-3.00232e-10
2.61339e-10
-2.39331e-10
4.00075e-10
-1.78633e-10
4.95115e-10
-1.18839e-10
5.47868e-10
-6.08401e-11
5.6058e-10
-5.7798e-12
5.36568e-10
4.48628e-11
4.80523e-10
8.91585e-11
3.98883e-10
1.2458e-10
3.00283e-10
1.47844e-10
1.95994e-10
1.5482e-10
1.00168e-10
1.40569e-10
2.92762e-11
1.00187e-10
3.45889e-11
4.48237e-11
-8.12156e-11
1.39117e-10
-1.95734e-10
2.56389e-10
-2.565e-10
3.75003e-10
-2.68636e-10
4.76678e-10
-2.41004e-10
5.46537e-10
-1.82285e-10
5.7287e-10
-9.99692e-11
5.4672e-10
-1.94601e-13
4.61452e-10
1.12133e-10
3.12323e-10
2.3317e-10
9.61382e-11
3.59886e-10
-1.89054e-10
4.899e-10
-5.44204e-10
6.21336e-10
-9.69455e-10
7.52706e-10
-1.4643e-09
8.82828e-10
-2.02771e-09
1.01076e-09
-2.65822e-09
1.13574e-09
-3.35403e-09
1.25716e-09
-4.11306e-09
1.37454e-09
-4.93302e-09
1.4875e-09
-5.8114e-09
1.59572e-09
-6.7456e-09
1.69897e-09
-7.73287e-09
1.79704e-09
-8.77037e-09
1.88981e-09
-9.85521e-09
1.97715e-09
-1.09845e-08
2.059e-09
-1.21551e-08
2.13531e-09
-1.33642e-08
2.20604e-09
-1.46087e-08
2.2712e-09
-1.58856e-08
2.33078e-09
-1.71919e-08
2.38482e-09
-1.85246e-08
2.43335e-09
-1.98807e-08
2.47641e-09
-2.12574e-08
2.51405e-09
-2.26516e-08
2.54635e-09
-2.40606e-08
2.57337e-09
-2.54815e-08
2.59518e-09
-2.69115e-08
2.61186e-09
-2.83478e-08
2.62351e-09
-2.97878e-08
2.6302e-09
-3.12288e-08
2.63204e-09
-3.26682e-08
2.62911e-09
-3.41034e-08
2.62151e-09
-3.5532e-08
2.60935e-09
-3.69514e-08
2.59272e-09
-3.83595e-08
2.57174e-09
-3.97537e-08
2.5465e-09
-4.11318e-08
2.51711e-09
-4.24916e-08
2.48367e-09
-4.3831e-08
2.44631e-09
-4.51479e-08
2.40513e-09
-4.64402e-08
2.36023e-09
-4.7706e-08
2.31173e-09
-4.89433e-08
2.25974e-09
-5.01502e-08
2.20438e-09
-5.13251e-08
2.14575e-09
-5.24662e-08
2.08397e-09
-5.35718e-08
2.01915e-09
-5.46403e-08
1.95142e-09
-5.56701e-08
1.88087e-09
-5.66599e-08
1.80764e-09
-5.76081e-08
1.73183e-09
-5.85135e-08
1.65356e-09
-5.93747e-08
1.57295e-09
-6.01906e-08
1.49011e-09
-6.09599e-08
1.40517e-09
-6.16816e-08
1.31825e-09
-6.23547e-08
1.22946e-09
-6.29782e-08
1.13892e-09
-6.35512e-08
1.04676e-09
-6.40729e-08
9.53101e-10
-6.45425e-08
8.58063e-10
-6.49594e-08
7.61771e-10
-6.53229e-08
6.6435e-10
-6.56325e-08
5.65928e-10
-6.58878e-08
4.66631e-10
-6.60882e-08
3.66587e-10
-6.62335e-08
2.65927e-10
-6.63234e-08
1.6478e-10
-6.63578e-08
6.32789e-11
-6.63364e-08
-3.84441e-11
-6.62592e-08
-1.40255e-10
-6.61264e-08
-2.42018e-10
-6.59379e-08
-3.43597e-10
-6.56939e-08
-4.44855e-10
-6.53948e-08
-5.45653e-10
-6.50409e-08
-6.45852e-10
-6.46324e-08
-7.4531e-10
-6.417e-08
-8.43887e-10
-6.36543e-08
-9.4144e-10
-6.30857e-08
-1.03782e-09
-6.24652e-08
-1.1329e-09
-6.17933e-08
-1.22651e-09
-6.10712e-08
-1.31853e-09
-6.02996e-08
-1.40879e-09
-5.94797e-08
-1.49716e-09
-5.86126e-08
-1.58349e-09
-5.76994e-08
-1.66763e-09
-5.67415e-08
-1.74944e-09
-5.57402e-08
-1.82877e-09
-5.4697e-08
-1.90546e-09
-5.36133e-08
-1.97939e-09
-5.24908e-08
-2.05039e-09
-5.13312e-08
-2.11834e-09
-5.01361e-08
-2.18307e-09
-4.89075e-08
-2.24446e-09
-4.76473e-08
-2.30236e-09
-4.63574e-08
-2.35664e-09
-4.50399e-08
-2.40714e-09
-4.36969e-08
-2.45375e-09
-4.23307e-08
-2.49633e-09
-4.09434e-08
-2.53475e-09
-3.95376e-08
-2.56888e-09
-3.81154e-08
-2.5986e-09
-3.66796e-08
-2.62379e-09
-3.52325e-08
-2.64434e-09
-3.37767e-08
-2.66013e-09
-3.2315e-08
-2.67105e-09
-3.08501e-08
-2.677e-09
-2.93846e-08
-2.67789e-09
-2.79215e-08
-2.67362e-09
-2.64635e-08
-2.66411e-09
-2.50136e-08
-2.64928e-09
-2.35747e-08
-2.62906e-09
-2.21498e-08
-2.60338e-09
-2.07418e-08
-2.57218e-09
-1.93539e-08
-2.53542e-09
-1.79889e-08
-2.49306e-09
-1.66501e-08
-2.44507e-09
-1.53404e-08
-2.39144e-09
-1.40629e-08
-2.33215e-09
-1.28206e-08
-2.26723e-09
-1.16167e-08
-2.19668e-09
-1.0454e-08
-2.12056e-09
-9.33557e-09
-2.03892e-09
-8.26434e-09
-1.95185e-09
-7.24315e-09
-1.85945e-09
-6.27476e-09
-1.76186e-09
-5.36185e-09
-1.65924e-09
-4.50697e-09
-1.5518e-09
-3.71254e-09
-1.43979e-09
-2.98078e-09
-1.32352e-09
-2.31372e-09
-1.20335e-09
-1.71311e-09
-1.07974e-09
-1.18041e-09
-9.53233e-10
-7.16702e-10
-8.2449e-10
-3.22609e-10
-6.94324e-10
1.78994e-12
-5.63728e-10
2.57087e-10
-4.3393e-10
4.44695e-10
-3.0645e-10
5.67041e-10
-1.83187e-10
6.27789e-10
-6.65266e-11
6.32129e-10
4.05276e-11
5.87107e-10
1.34185e-10
5.0201e-10
2.09676e-10
3.88762e-10
2.61087e-10
2.62274e-10
2.81303e-10
1.40587e-10
2.62257e-10
4.47189e-11
1.96065e-10
7.93081e-11
4.96961e-11
-1.30912e-10
1.50293e-10
-2.96331e-10
2.69185e-10
-3.7539e-10
3.81178e-10
-3.80628e-10
4.65464e-10
-3.2529e-10
5.04974e-10
-2.21794e-10
4.85984e-10
-8.09783e-11
3.97719e-10
8.80718e-11
2.31944e-10
2.7791e-10
-1.73947e-11
4.82511e-10
-3.5453e-10
6.97023e-10
-7.82174e-10
9.17545e-10
-1.30178e-09
1.14094e-09
-1.91375e-09
1.36468e-09
-2.61765e-09
1.58673e-09
-3.41232e-09
1.80543e-09
-4.29604e-09
2.01945e-09
-5.26658e-09
2.2277e-09
-6.32135e-09
2.42932e-09
-7.45742e-09
2.62357e-09
-8.6716e-09
2.80991e-09
-9.9605e-09
2.98786e-09
-1.13205e-08
3.15708e-09
-1.2748e-08
3.31728e-09
-1.42391e-08
3.46824e-09
-1.57899e-08
3.60982e-09
-1.73965e-08
3.74189e-09
-1.90548e-08
3.8644e-09
-2.0761e-08
3.97732e-09
-2.25108e-08
4.08064e-09
-2.43004e-08
4.17438e-09
-2.61256e-08
4.2586e-09
-2.79826e-08
4.33336e-09
-2.98673e-08
4.39874e-09
-3.17758e-08
4.45484e-09
-3.37042e-08
4.50178e-09
-3.56487e-08
4.53967e-09
-3.76055e-08
4.56865e-09
-3.95708e-08
4.58886e-09
-4.15411e-08
4.60045e-09
-4.35126e-08
4.60357e-09
-4.54819e-08
4.59839e-09
-4.74454e-08
4.58506e-09
-4.93998e-08
4.56377e-09
-5.13418e-08
4.53469e-09
-5.32681e-08
4.49799e-09
-5.51754e-08
4.45386e-09
-5.70608e-08
4.40247e-09
-5.89211e-08
4.34402e-09
-6.07535e-08
4.27869e-09
-6.25551e-08
4.20668e-09
-6.4323e-08
4.12817e-09
-6.60547e-08
4.04336e-09
-6.77474e-08
3.95245e-09
-6.93986e-08
3.85562e-09
-7.10059e-08
3.75307e-09
-7.2567e-08
3.64501e-09
-7.40795e-08
3.53164e-09
-7.55412e-08
3.41314e-09
-7.69501e-08
3.28973e-09
-7.8304e-08
3.16161e-09
-7.96012e-08
3.02898e-09
-8.08397e-08
2.89204e-09
-8.20177e-08
2.75099e-09
-8.31337e-08
2.60606e-09
-8.41859e-08
2.45744e-09
-8.5173e-08
2.30534e-09
-8.60935e-08
2.14998e-09
-8.69462e-08
1.99156e-09
-8.77297e-08
1.8303e-09
-8.8443e-08
1.66641e-09
-8.90851e-08
1.50012e-09
-8.96549e-08
1.33163e-09
-9.01518e-08
1.16117e-09
-9.05748e-08
9.88967e-10
-9.09234e-08
8.15232e-10
-9.1197e-08
6.40196e-10
-9.13952e-08
4.64087e-10
-9.15175e-08
2.87132e-10
-9.15638e-08
1.09565e-10
-9.15339e-08
-6.83839e-11
-9.14277e-08
-2.46478e-10
-9.12452e-08
-4.2448e-10
-9.09866e-08
-6.02152e-10
-9.06522e-08
-7.79252e-10
-9.02424e-08
-9.55538e-10
-8.97575e-08
-1.13077e-09
-8.91981e-08
-1.30469e-09
-8.85649e-08
-1.47706e-09
-8.78587e-08
-1.64762e-09
-8.70804e-08
-1.81614e-09
-8.6231e-08
-1.98235e-09
-8.53115e-08
-2.146e-09
-8.43232e-08
-2.30684e-09
-8.32674e-08
-2.4646e-09
-8.21455e-08
-2.61905e-09
-8.09591e-08
-2.76992e-09
-7.97097e-08
-2.91695e-09
-7.83993e-08
-3.05989e-09
-7.70296e-08
-3.19848e-09
-7.56026e-08
-3.33247e-09
-7.41204e-08
-3.46161e-09
-7.25851e-08
-3.58564e-09
-7.09991e-08
-3.7043e-09
-6.93649e-08
-3.81736e-09
-6.76847e-08
-3.92457e-09
-6.59614e-08
-4.02567e-09
-6.41976e-08
-4.12044e-09
-6.23962e-08
-4.20862e-09
-6.05599e-08
-4.29e-09
-5.86919e-08
-4.36434e-09
-5.67953e-08
-4.43141e-09
-5.48731e-08
-4.491e-09
-5.29288e-08
-4.5429e-09
-5.09657e-08
-4.58689e-09
-4.89873e-08
-4.62279e-09
-4.6997e-08
-4.65039e-09
-4.49986e-08
-4.66952e-09
-4.29956e-08
-4.67999e-09
-4.09918e-08
-4.68165e-09
-3.89911e-08
-4.67433e-09
-3.69973e-08
-4.6579e-09
-3.50144e-08
-4.63223e-09
-3.30463e-08
-4.59718e-09
-3.1097e-08
-4.55265e-09
-2.91706e-08
-4.49856e-09
-2.72712e-08
-4.43483e-09
-2.54029e-08
-4.3614e-09
-2.35697e-08
-4.27822e-09
-2.17759e-08
-4.18529e-09
-2.00254e-08
-4.08259e-09
-1.83225e-08
-3.97017e-09
-1.66711e-08
-3.84808e-09
-1.50752e-08
-3.7164e-09
-1.35389e-08
-3.57525e-09
-1.2066e-08
-3.4248e-09
-1.06602e-08
-3.26524e-09
-9.32519e-09
-3.09685e-09
-8.06451e-09
-2.91992e-09
-6.88146e-09
-2.73485e-09
-5.77916e-09
-2.54209e-09
-4.76045e-09
-2.34222e-09
-3.8279e-09
-2.1359e-09
-2.98369e-09
-1.92395e-09
-2.22958e-09
-1.70734e-09
-1.56683e-09
-1.48725e-09
-9.96057e-10
-1.2651e-09
-5.17159e-10
-1.04262e-09
-1.29156e-10
-8.21931e-10
1.69987e-10
-6.05594e-10
3.83572e-10
-3.96775e-10
5.16408e-10
-1.99365e-10
5.75104e-10
-1.81663e-11
5.6838e-10
1.40913e-10
5.07417e-10
2.70645e-10
4.06203e-10
3.62301e-10
2.81887e-10
4.05615e-10
1.55106e-10
3.89033e-10
5.05688e-11
3.00605e-10
1.2988e-10
4.74977e-11
-1.78409e-10
1.40238e-10
-3.89071e-10
2.42752e-10
-4.77904e-10
3.27655e-10
-4.6553e-10
3.72576e-10
-3.7021e-10
3.59153e-10
-2.0837e-10
2.7247e-10
5.7055e-12
1.00623e-10
2.59921e-10
-1.65658e-10
5.44193e-10
-5.33344e-10
8.50198e-10
-1.00743e-09
1.17111e-09
-1.59121e-09
1.50133e-09
-2.28656e-09
1.83629e-09
-3.09413e-09
2.17226e-09
-4.01358e-09
2.50617e-09
-5.04367e-09
2.83553e-09
-6.18249e-09
3.15827e-09
-7.4275e-09
3.47272e-09
-8.77569e-09
3.77751e-09
-1.02236e-08
4.0715e-09
-1.17675e-08
4.3538e-09
-1.34033e-08
4.62366e-09
-1.51267e-08
4.88049e-09
-1.69332e-08
5.12382e-09
-1.88183e-08
5.3533e-09
-2.07771e-08
5.56865e-09
-2.28049e-08
5.76968e-09
-2.48968e-08
5.95626e-09
-2.70478e-08
6.1283e-09
-2.92529e-08
6.28579e-09
-3.15073e-08
6.42875e-09
-3.38059e-08
6.55722e-09
-3.61438e-08
6.67128e-09
-3.85161e-08
6.77106e-09
-4.0918e-08
6.85669e-09
-4.33445e-08
6.92831e-09
-4.5791e-08
6.98612e-09
-4.82526e-08
7.0303e-09
-5.07248e-08
7.06106e-09
-5.3203e-08
7.07862e-09
-5.56827e-08
7.08321e-09
-5.81593e-08
7.07506e-09
-6.06287e-08
7.05443e-09
-6.30865e-08
7.02157e-09
-6.55286e-08
6.97675e-09
-6.79508e-08
6.92023e-09
-7.03493e-08
6.8523e-09
-7.272e-08
6.77322e-09
-7.50593e-08
6.68328e-09
-7.73633e-08
6.58276e-09
-7.96286e-08
6.47196e-09
-8.18516e-08
6.35117e-09
-8.40289e-08
6.22069e-09
-8.61573e-08
6.0808e-09
-8.82335e-08
5.93182e-09
-9.02545e-08
5.77404e-09
-9.22172e-08
5.60776e-09
-9.41189e-08
5.4333e-09
-9.59567e-08
5.25096e-09
-9.7728e-08
5.06105e-09
-9.94303e-08
4.86389e-09
-1.01061e-07
4.65977e-09
-1.02618e-07
4.44903e-09
-1.04099e-07
4.23197e-09
-1.05502e-07
4.00891e-09
-1.06825e-07
3.78018e-09
-1.08065e-07
3.5461e-09
-1.09222e-07
3.30699e-09
-1.10294e-07
3.06318e-09
-1.11279e-07
2.815e-09
-1.12175e-07
2.56277e-09
-1.12982e-07
2.30684e-09
-1.13698e-07
2.04755e-09
-1.14322e-07
1.78522e-09
-1.14853e-07
1.52021e-09
-1.15291e-07
1.25285e-09
-1.15634e-07
9.83495e-10
-1.15882e-07
7.12498e-10
-1.16035e-07
4.40209e-10
-1.16093e-07
1.66987e-10
-1.16054e-07
-1.06811e-10
-1.1592e-07
-3.80822e-10
-1.1569e-07
-6.54679e-10
-1.15364e-07
-9.28016e-10
-1.14943e-07
-1.20046e-09
-1.14427e-07
-1.47164e-09
-1.13816e-07
-1.74118e-09
-1.13112e-07
-2.00869e-09
-1.12316e-07
-2.2738e-09
-1.11427e-07
-2.53612e-09
-1.10448e-07
-2.79528e-09
-1.09379e-07
-3.05087e-09
-1.08223e-07
-3.30251e-09
-1.0698e-07
-3.54981e-09
-1.05652e-07
-3.79237e-09
-1.04241e-07
-4.02982e-09
-1.0275e-07
-4.26174e-09
-1.01179e-07
-4.48776e-09
-9.95312e-08
-4.70747e-09
-9.78092e-08
-4.92048e-09
-9.60153e-08
-5.12641e-09
-9.4152e-08
-5.32487e-09
-9.22222e-08
-5.51546e-09
-9.02287e-08
-5.69781e-09
-8.81745e-08
-5.87153e-09
-8.60628e-08
-6.03625e-09
-8.38969e-08
-6.19159e-09
-8.16802e-08
-6.33719e-09
-7.94161e-08
-6.47268e-09
-7.71084e-08
-6.5977e-09
-7.47608e-08
-6.71192e-09
-7.23772e-08
-6.81499e-09
-6.99617e-08
-6.90657e-09
-6.75182e-08
-6.98634e-09
-6.50511e-08
-7.054e-09
-6.25647e-08
-7.10924e-09
-6.00633e-08
-7.15176e-09
-5.75515e-08
-7.1813e-09
-5.50339e-08
-7.19758e-09
-5.25152e-08
-7.20037e-09
-5.00001e-08
-7.18943e-09
-4.74935e-08
-7.16454e-09
-4.50002e-08
-7.12552e-09
-4.25252e-08
-7.07217e-09
-4.00735e-08
-7.00436e-09
-3.76501e-08
-6.92195e-09
-3.52601e-08
-6.82483e-09
-3.29086e-08
-6.71293e-09
-3.06006e-08
-6.5862e-09
-2.83412e-08
-6.44462e-09
-2.61356e-08
-6.28822e-09
-2.39887e-08
-6.11706e-09
-2.19056e-08
-5.93123e-09
-1.98911e-08
-5.7309e-09
-1.79501e-08
-5.51627e-09
-1.60872e-08
-5.28761e-09
-1.43072e-08
-5.04526e-09
-1.26144e-08
-4.78964e-09
-1.10131e-08
-4.52127e-09
-9.50717e-09
-4.24076e-09
-8.10041e-09
-3.94886e-09
-6.79618e-09
-3.64646e-09
-5.59746e-09
-3.33462e-09
-4.50679e-09
-3.01462e-09
-3.52615e-09
-2.68798e-09
-2.65689e-09
-2.3565e-09
-1.89962e-09
-2.02237e-09
-1.25403e-09
-1.68821e-09
-7.18818e-10
-1.35714e-09
-2.91417e-10
-1.03299e-09
3.21508e-11
-7.20342e-10
2.57545e-10
-4.24762e-10
3.92368e-10
-1.52991e-10
4.46456e-10
8.68261e-11
4.32189e-10
2.84916e-10
3.64824e-10
4.29672e-10
2.62893e-10
5.07547e-10
1.48728e-10
5.03195e-10
4.94451e-11
3.99886e-10
1.79327e-10
4.04023e-11
-2.18811e-10
1.14237e-10
-4.62904e-10
1.85756e-10
-5.49423e-10
2.268e-10
-5.06573e-10
2.14325e-10
-3.57735e-10
1.29368e-10
-1.23412e-10
-4.35807e-11
1.78655e-10
-3.17027e-10
5.33368e-10
-7.00834e-10
9.28e-10
-1.20253e-09
1.3519e-09
-1.8276e-09
1.79618e-09
-2.57975e-09
2.25348e-09
-3.46114e-09
2.71769e-09
-4.47262e-09
3.18373e-09
-5.61388e-09
3.64743e-09
-6.88366e-09
4.10531e-09
-8.27989e-09
4.55449e-09
-9.79976e-09
4.9926e-09
-1.14399e-08
5.41767e-09
-1.31965e-08
5.82808e-09
-1.50652e-08
6.22252e-09
-1.70414e-08
6.59988e-09
-1.91203e-08
6.95931e-09
-2.12965e-08
7.30009e-09
-2.35649e-08
7.62168e-09
-2.59199e-08
7.92365e-09
-2.83559e-08
8.20569e-09
-3.08673e-08
8.46758e-09
-3.34481e-08
8.70918e-09
-3.60928e-08
8.93042e-09
-3.87953e-08
9.1313e-09
-4.155e-08
9.31187e-09
-4.43509e-08
9.47222e-09
-4.71923e-08
9.6125e-09
-5.00685e-08
9.73286e-09
-5.29737e-08
9.83353e-09
-5.59023e-08
9.91472e-09
-5.88487e-08
9.9767e-09
-6.18074e-08
1.00197e-08
-6.4773e-08
1.00442e-08
-6.774e-08
1.00502e-08
-7.07033e-08
1.00383e-08
-7.36576e-08
1.00088e-08
-7.6598e-08
9.96194e-09
-7.95194e-08
9.89816e-09
-8.2417e-08
9.81782e-09
-8.5286e-08
9.72131e-09
-8.81218e-08
9.60902e-09
-9.09199e-08
9.48134e-09
-9.36758e-08
9.33867e-09
-9.63853e-08
9.18143e-09
-9.90441e-08
9.01001e-09
-1.01648e-07
8.82485e-09
-1.04194e-07
8.62635e-09
-1.06677e-07
8.41495e-09
-1.09094e-07
8.19106e-09
-1.11441e-07
7.95512e-09
-1.13716e-07
7.70756e-09
-1.15913e-07
7.44883e-09
-1.18032e-07
7.17934e-09
-1.20067e-07
6.89955e-09
-1.22018e-07
6.60991e-09
-1.23879e-07
6.31085e-09
-1.2565e-07
6.00283e-09
-1.27328e-07
5.6863e-09
-1.28909e-07
5.36172e-09
-1.30393e-07
5.02954e-09
-1.31776e-07
4.69023e-09
-1.33057e-07
4.34424e-09
-1.34234e-07
3.99206e-09
-1.35305e-07
3.63415e-09
-1.36269e-07
3.27098e-09
-1.37125e-07
2.90304e-09
-1.37871e-07
2.53081e-09
-1.38505e-07
2.15478e-09
-1.39028e-07
1.77542e-09
-1.39437e-07
1.39325e-09
-1.39734e-07
1.00875e-09
-1.39916e-07
6.22437e-10
-1.39984e-07
2.34808e-10
-1.39937e-07
-1.53623e-10
-1.39775e-07
-5.4234e-10
-1.39499e-07
-9.30826e-10
-1.39109e-07
-1.31856e-09
-1.38604e-07
-1.705e-09
-1.37986e-07
-2.08964e-09
-1.37255e-07
-2.47193e-09
-1.36413e-07
-2.85133e-09
-1.35459e-07
-3.2273e-09
-1.34396e-07
-3.59931e-09
-1.33225e-07
-3.96679e-09
-1.31946e-07
-4.32921e-09
-1.30563e-07
-4.68601e-09
-1.29076e-07
-5.03663e-09
-1.27488e-07
-5.38053e-09
-1.25801e-07
-5.71714e-09
-1.24016e-07
-6.04591e-09
-1.22138e-07
-6.36629e-09
-1.20168e-07
-6.67772e-09
-1.18108e-07
-6.97964e-09
-1.15963e-07
-7.27151e-09
-1.13735e-07
-7.55277e-09
-1.11428e-07
-7.82288e-09
-1.09044e-07
-8.0813e-09
-1.06589e-07
-8.32748e-09
-1.04064e-07
-8.5609e-09
-1.01474e-07
-8.78104e-09
-9.88243e-08
-8.98736e-09
-9.61176e-08
-9.17938e-09
-9.33587e-08
-9.35658e-09
-9.05521e-08
-9.51847e-09
-8.77025e-08
-9.66458e-09
-8.48147e-08
-9.79444e-09
-8.18934e-08
-9.90761e-09
-7.89438e-08
-1.00036e-08
-7.59709e-08
-1.00821e-08
-7.29801e-08
-1.01426e-08
-6.99766e-08
-1.01848e-08
-6.6966e-08
-1.02082e-08
-6.39537e-08
-1.02126e-08
-6.09456e-08
-1.01976e-08
-5.79471e-08
-1.0163e-08
-5.49642e-08
-1.01084e-08
-5.20027e-08
-1.00337e-08
-4.90686e-08
-9.93853e-09
-4.61677e-08
-9.82287e-09
-4.3306e-08
-9.68653e-09
-4.04895e-08
-9.52941e-09
-3.77242e-08
-9.35147e-09
-3.50161e-08
-9.1527e-09
-3.23712e-08
-8.93317e-09
-2.97953e-08
-8.69296e-09
-2.72943e-08
-8.43226e-09
-2.48739e-08
-8.15131e-09
-2.25397e-08
-7.85042e-09
-2.02973e-08
-7.53002e-09
-1.81519e-08
-7.19062e-09
-1.61087e-08
-6.83283e-09
-1.41726e-08
-6.45743e-09
-1.2348e-08
-6.06532e-09
-1.06393e-08
-5.65759e-09
-9.05023e-09
-5.23553e-09
-7.58417e-09
-4.80068e-09
-6.24393e-09
-4.35486e-09
-5.03168e-09
-3.90023e-09
-3.94886e-09
-3.43933e-09
-2.99602e-09
-2.97521e-09
-2.17274e-09
-2.51149e-09
-1.47743e-09
-2.05246e-09
-9.07154e-10
-1.60326e-09
-4.57458e-10
-1.17003e-09
-1.22113e-10
-7.60107e-10
1.07119e-10
-3.82225e-10
2.40742e-10
-4.67993e-11
2.9182e-10
2.33839e-10
2.76301e-10
4.45194e-10
2.13446e-10
5.70406e-10
1.26437e-10
5.90206e-10
4.34164e-11
4.82905e-10
2.22743e-10
2.99509e-11
-2.48762e-10
7.65787e-11
-5.09531e-10
1.05599e-10
-5.78442e-10
8.9283e-11
-4.90257e-10
4.71962e-12
-2.7317e-10
-1.67064e-10
4.83733e-11
-4.41682e-10
4.53274e-10
-8.31819e-10
9.23507e-10
-1.34757e-09
1.44375e-09
-1.99671e-09
2.00104e-09
-2.78498e-09
2.58445e-09
-3.71629e-09
3.18479e-09
-4.79297e-09
3.79437e-09
-6.01595e-09
4.40671e-09
-7.38494e-09
5.01643e-09
-8.89861e-09
5.61899e-09
-1.05547e-08
6.21061e-09
-1.23503e-08
6.78816e-09
-1.42816e-08
7.34899e-09
-1.63445e-08
7.89093e-09
-1.85341e-08
8.41216e-09
-2.08454e-08
8.9112e-09
-2.32729e-08
9.38684e-09
-2.58109e-08
9.83808e-09
-2.84534e-08
1.02642e-08
-3.11942e-08
1.06644e-08
-3.4027e-08
1.10385e-08
-3.69454e-08
1.1386e-08
-3.99428e-08
1.17066e-08
-4.30127e-08
1.20004e-08
-4.61486e-08
1.22671e-08
-4.93436e-08
1.25069e-08
-5.25913e-08
1.27199e-08
-5.58851e-08
1.29062e-08
-5.92183e-08
1.30661e-08
-6.25844e-08
1.31997e-08
-6.59771e-08
1.33074e-08
-6.93898e-08
1.33894e-08
-7.28163e-08
1.34462e-08
-7.62503e-08
1.34782e-08
-7.96857e-08
1.34856e-08
-8.31164e-08
1.34691e-08
-8.65365e-08
1.34289e-08
-8.99402e-08
1.33656e-08
-9.33218e-08
1.32797e-08
-9.66756e-08
1.31716e-08
-9.99961e-08
1.30419e-08
-1.03278e-07
1.2891e-08
-1.06516e-07
1.27195e-08
-1.09706e-07
1.2528e-08
-1.12841e-07
1.23169e-08
-1.15918e-07
1.20868e-08
-1.18931e-07
1.18383e-08
-1.21877e-07
1.15719e-08
-1.2475e-07
1.12882e-08
-1.27547e-07
1.09877e-08
-1.30263e-07
1.06711e-08
-1.32894e-07
1.03389e-08
-1.35437e-07
9.99172e-09
-1.37888e-07
9.63011e-09
-1.40243e-07
9.25467e-09
-1.42499e-07
8.866e-09
-1.44653e-07
8.4647e-09
-1.46701e-07
8.05138e-09
-1.48642e-07
7.62665e-09
-1.50471e-07
7.19111e-09
-1.52187e-07
6.74538e-09
-1.53787e-07
6.29008e-09
-1.55268e-07
5.82584e-09
-1.5663e-07
5.35328e-09
-1.57868e-07
4.87304e-09
-1.58983e-07
4.38576e-09
-1.59972e-07
3.89209e-09
-1.60834e-07
3.39266e-09
-1.61568e-07
2.88814e-09
-1.62171e-07
2.37918e-09
-1.62644e-07
1.86646e-09
-1.62986e-07
1.35063e-09
-1.63196e-07
8.32377e-10
-1.63274e-07
3.12379e-10
-1.63219e-07
-2.08678e-10
-1.63031e-07
-7.30101e-10
-1.62711e-07
-1.25119e-09
-1.62258e-07
-1.77125e-09
-1.61673e-07
-2.28957e-09
-1.60958e-07
-2.80544e-09
-1.60111e-07
-3.31814e-09
-1.59136e-07
-3.82694e-09
-1.58032e-07
-4.33113e-09
-1.56801e-07
-4.82997e-09
-1.55445e-07
-5.32273e-09
-1.53966e-07
-5.80867e-09
-1.52365e-07
-6.28705e-09
-1.50644e-07
-6.75714e-09
-1.48807e-07
-7.21819e-09
-1.46854e-07
-7.66945e-09
-1.4479e-07
-8.11019e-09
-1.42617e-07
-8.53966e-09
-1.40337e-07
-8.95711e-09
-1.37955e-07
-9.36181e-09
-1.35474e-07
-9.75301e-09
-1.32897e-07
-1.013e-08
-1.30227e-07
-1.0492e-08
-1.2747e-07
-1.08384e-08
-1.24629e-07
-1.11683e-08
-1.21709e-07
-1.14812e-08
-1.18714e-07
-1.17762e-08
-1.15648e-07
-1.20528e-08
-1.12518e-07
-1.23102e-08
-1.09326e-07
-1.25478e-08
-1.0608e-07
-1.27649e-08
-1.02784e-07
-1.29608e-08
-9.94432e-08
-1.31351e-08
-9.60639e-08
-1.32869e-08
-9.26516e-08
-1.34159e-08
-8.92122e-08
-1.35215e-08
-8.57518e-08
-1.3603e-08
-8.22766e-08
-1.366e-08
-7.87928e-08
-1.3692e-08
-7.53067e-08
-1.36987e-08
-7.18249e-08
-1.36794e-08
-6.83539e-08
-1.3634e-08
-6.49004e-08
-1.35619e-08
-6.1471e-08
-1.3463e-08
-5.80725e-08
-1.3337e-08
-5.47117e-08
-1.31837e-08
-5.13954e-08
-1.30028e-08
-4.81305e-08
-1.27944e-08
-4.49237e-08
-1.25583e-08
-4.17818e-08
-1.22945e-08
-3.87118e-08
-1.20033e-08
-3.57201e-08
-1.16846e-08
-3.28135e-08
-1.13389e-08
-2.99984e-08
-1.09664e-08
-2.72812e-08
-1.05676e-08
-2.46681e-08
-1.01432e-08
-2.2165e-08
-9.69371e-09
-1.97776e-08
-9.22017e-09
-1.75115e-08
-8.72357e-09
-1.53716e-08
-8.20519e-09
-1.33627e-08
-7.6665e-09
-1.1489e-08
-7.10927e-09
-9.75407e-09
-6.53557e-09
-8.16109e-09
-5.94784e-09
-6.71236e-09
-5.34895e-09
-5.4094e-09
-4.74229e-09
-4.25277e-09
-4.13184e-09
-3.24197e-09
-3.5223e-09
-2.37523e-09
-2.91919e-09
-1.64941e-09
-2.32908e-09
-1.05976e-09
-1.75969e-09
-5.99723e-10
-1.22014e-09
-2.60748e-10
-7.21198e-10
-3.20152e-11
-2.75533e-10
9.98104e-11
1.02011e-10
1.50898e-10
3.94107e-10
1.40667e-10
5.80639e-10
9.23685e-11
6.38507e-10
3.39779e-11
5.41297e-10
2.56721e-10
1.72411e-11
-2.66003e-10
3.05848e-11
-5.22873e-10
8.27432e-12
-5.56131e-10
-7.60713e-11
-4.0591e-10
-2.44555e-10
-1.04686e-10
-5.15641e-10
3.1946e-10
-9.04629e-10
8.42264e-10
-1.42403e-09
1.44291e-09
-2.08386e-09
2.10358e-09
-2.89188e-09
2.80907e-09
-3.85387e-09
3.54643e-09
-4.97376e-09
4.30469e-09
-6.25391e-09
5.07451e-09
-7.69523e-09
5.84803e-09
-9.29738e-09
6.61858e-09
-1.10589e-08
7.38054e-09
-1.29775e-08
8.12917e-09
-1.50498e-08
8.86048e-09
-1.72719e-08
9.57111e-09
-1.96393e-08
1.02583e-08
-2.21467e-08
1.09196e-08
-2.47887e-08
1.15532e-08
-2.75592e-08
1.21574e-08
-3.0452e-08
1.27309e-08
-3.34606e-08
1.32727e-08
-3.65781e-08
1.3782e-08
-3.97976e-08
1.4258e-08
-4.3112e-08
1.47004e-08
-4.65142e-08
1.51088e-08
-4.99968e-08
1.54829e-08
-5.35524e-08
1.58228e-08
-5.71739e-08
1.61284e-08
-6.08537e-08
1.63997e-08
-6.45845e-08
1.66371e-08
-6.8359e-08
1.68406e-08
-7.217e-08
1.70106e-08
-7.60101e-08
1.71475e-08
-7.98723e-08
1.72516e-08
-8.37494e-08
1.73234e-08
-8.76346e-08
1.73633e-08
-9.15208e-08
1.73719e-08
-9.54013e-08
1.73496e-08
-9.92695e-08
1.72971e-08
-1.03119e-07
1.72149e-08
-1.06943e-07
1.71036e-08
-1.10735e-07
1.69639e-08
-1.1449e-07
1.67964e-08
-1.182e-07
1.66017e-08
-1.21861e-07
1.63805e-08
-1.25467e-07
1.61335e-08