/*--------------------------------*- C++ -*----------------------------------*\
  =========                 |
  \\      /  F ield         | OpenFOAM: The Open Source CFD Toolbox
   \\    /   O peration     | Website:  https://openfoam.org
    \\  /    A nd           | Version:  7
     \\/     M anipulation  |
\*---------------------------------------------------------------------------*/
FoamFile
{
    version     2.0;
    format      ascii;
    class       volVectorField;
    location    "0.4375";
    object      U;
}
// * * * * * * * * * * * * * * * * * * * * * * * * * * * * * * * * * * * * * //

dimensions      [0 1 -1 0 0 0 0];

internalField   nonuniform List<vector> 
25600
(
(1.68669e-07 -2.15496e-07 0)
(2.8221e-06 -1.80047e-06 0)
(9.0682e-06 -2.83594e-06 0)
(1.69252e-05 -3.2083e-06 0)
(2.48871e-05 -3.12445e-06 0)
(3.20065e-05 -2.74665e-06 0)
(3.76307e-05 -2.182e-06 0)
(4.13101e-05 -1.50155e-06 0)
(4.27452e-05 -7.51696e-07 0)
(4.17429e-05 3.72035e-08 0)
(3.81855e-05 8.44686e-07 0)
(3.20106e-05 1.65658e-06 0)
(2.31965e-05 2.46286e-06 0)
(1.17527e-05 3.25626e-06 0)
(-2.28773e-06 4.03144e-06 0)
(-1.88737e-05 4.78443e-06 0)
(-3.79398e-05 5.51227e-06 0)
(-5.94099e-05 6.21274e-06 0)
(-8.31992e-05 6.88418e-06 0)
(-0.000109216 7.52542e-06 0)
(-0.000137365 8.13559e-06 0)
(-0.000167545 8.71411e-06 0)
(-0.000199652 9.26058e-06 0)
(-0.000233583 9.7748e-06 0)
(-0.000269228 1.02567e-05 0)
(-0.000306482 1.07063e-05 0)
(-0.000345236 1.11238e-05 0)
(-0.000385382 1.15093e-05 0)
(-0.000426812 1.18631e-05 0)
(-0.000469419 1.21857e-05 0)
(-0.000513095 1.24773e-05 0)
(-0.000557736 1.27384e-05 0)
(-0.000603237 1.29694e-05 0)
(-0.000649495 1.31708e-05 0)
(-0.000696407 1.33431e-05 0)
(-0.000743875 1.34868e-05 0)
(-0.000791798 1.36024e-05 0)
(-0.00084008 1.36905e-05 0)
(-0.000888626 1.37517e-05 0)
(-0.000937342 1.37865e-05 0)
(-0.000986136 1.37955e-05 0)
(-0.00103492 1.37792e-05 0)
(-0.0010836 1.37382e-05 0)
(-0.0011321 1.36732e-05 0)
(-0.00118033 1.35847e-05 0)
(-0.00122821 1.34733e-05 0)
(-0.00127565 1.33396e-05 0)
(-0.00132259 1.31843e-05 0)
(-0.00136895 1.30078e-05 0)
(-0.00141464 1.28108e-05 0)
(-0.00145961 1.25939e-05 0)
(-0.00150377 1.23577e-05 0)
(-0.00154707 1.21028e-05 0)
(-0.00158943 1.18298e-05 0)
(-0.0016308 1.15393e-05 0)
(-0.00167111 1.12319e-05 0)
(-0.00171031 1.09081e-05 0)
(-0.00174833 1.05686e-05 0)
(-0.00178512 1.0214e-05 0)
(-0.00182063 9.84482e-06 0)
(-0.00185481 9.46174e-06 0)
(-0.00188761 9.06533e-06 0)
(-0.00191898 8.65618e-06 0)
(-0.00194888 8.23491e-06 0)
(-0.00197727 7.80212e-06 0)
(-0.0020041 7.35841e-06 0)
(-0.00202935 6.9044e-06 0)
(-0.00205296 6.44071e-06 0)
(-0.00207492 5.96794e-06 0)
(-0.00209519 5.48672e-06 0)
(-0.00211373 4.99767e-06 0)
(-0.00213053 4.50143e-06 0)
(-0.00214556 3.99862e-06 0)
(-0.0021588 3.4899e-06 0)
(-0.00217022 2.97589e-06 0)
(-0.00217981 2.45726e-06 0)
(-0.00218756 1.93467e-06 0)
(-0.00219345 1.40876e-06 0)
(-0.00219747 8.80218e-07 0)
(-0.00219962 3.49711e-07 0)
(-0.00219988 -1.82075e-07 0)
(-0.00219826 -7.14451e-07 0)
(-0.00219475 -1.24672e-06 0)
(-0.00218936 -1.77818e-06 0)
(-0.00218209 -2.30812e-06 0)
(-0.00217294 -2.83583e-06 0)
(-0.00216194 -3.36058e-06 0)
(-0.00214908 -3.88164e-06 0)
(-0.00213439 -4.39828e-06 0)
(-0.00211788 -4.90975e-06 0)
(-0.00209957 -5.41531e-06 0)
(-0.00207948 -5.91421e-06 0)
(-0.00205764 -6.40568e-06 0)
(-0.00203408 -6.88896e-06 0)
(-0.00200883 -7.36329e-06 0)
(-0.00198192 -7.8279e-06 0)
(-0.00195339 -8.28201e-06 0)
(-0.00192327 -8.72485e-06 0)
(-0.00189161 -9.15564e-06 0)
(-0.00185845 -9.5736e-06 0)
(-0.00182384 -9.97796e-06 0)
(-0.00178783 -1.03679e-05 0)
(-0.00175048 -1.07427e-05 0)
(-0.00171183 -1.11016e-05 0)
(-0.00167194 -1.14438e-05 0)
(-0.00163088 -1.17685e-05 0)
(-0.00158871 -1.2075e-05 0)
(-0.00154549 -1.23625e-05 0)
(-0.0015013 -1.26302e-05 0)
(-0.0014562 -1.28775e-05 0)
(-0.00141027 -1.31036e-05 0)
(-0.00136358 -1.33078e-05 0)
(-0.00131622 -1.34894e-05 0)
(-0.00126825 -1.36477e-05 0)
(-0.00121978 -1.3782e-05 0)
(-0.00117088 -1.38917e-05 0)
(-0.00112163 -1.39761e-05 0)
(-0.00107214 -1.40347e-05 0)
(-0.00102249 -1.40667e-05 0)
(-0.000972776 -1.40716e-05 0)
(-0.000923092 -1.40489e-05 0)
(-0.000873537 -1.39981e-05 0)
(-0.000824211 -1.39186e-05 0)
(-0.000775214 -1.381e-05 0)
(-0.000726648 -1.36718e-05 0)
(-0.000678616 -1.35036e-05 0)
(-0.000631225 -1.3305e-05 0)
(-0.000584578 -1.30758e-05 0)
(-0.000538784 -1.28155e-05 0)
(-0.000493948 -1.2524e-05 0)
(-0.00045018 -1.2201e-05 0)
(-0.000407587 -1.18464e-05 0)
(-0.000366278 -1.146e-05 0)
(-0.000326359 -1.10419e-05 0)
(-0.00028794 -1.0592e-05 0)
(-0.000251127 -1.01105e-05 0)
(-0.000216024 -9.59762e-06 0)
(-0.000182737 -9.05363e-06 0)
(-0.000151367 -8.47901e-06 0)
(-0.000122014 -7.87433e-06 0)
(-9.47721e-05 -7.24037e-06 0)
(-6.97346e-05 -6.5781e-06 0)
(-4.69874e-05 -5.88881e-06 0)
(-2.66106e-05 -5.17413e-06 0)
(-8.67647e-06 -4.43614e-06 0)
(6.7527e-06 -3.67749e-06 0)
(1.96267e-05 -2.90156e-06 0)
(2.99108e-05 -2.11272e-06 0)
(3.75894e-05 -1.31673e-06 0)
(4.2672e-05 -5.21357e-07 0)
(4.52e-05 2.62868e-07 0)
(4.52562e-05 1.02138e-06 0)
(4.29795e-05 1.73343e-06 0)
(3.85842e-05 2.3684e-06 0)
(3.23905e-05 2.87989e-06 0)
(2.48668e-05 3.19743e-06 0)
(1.66793e-05 3.21619e-06 0)
(8.77989e-06 2.77996e-06 0)
(2.6436e-06 1.69651e-06 0)
(1.22105e-07 1.22004e-07 0)
(1.77114e-06 -2.89189e-06 0)
(9.37142e-06 -9.42448e-06 0)
(2.3132e-05 -1.34255e-05 0)
(3.93772e-05 -1.47345e-05 0)
(5.52643e-05 -1.39697e-05 0)
(6.88004e-05 -1.17019e-05 0)
(7.8446e-05 -8.37147e-06 0)
(8.30435e-05 -4.30753e-06 0)
(8.17609e-05 2.49561e-07 0)
(7.402e-05 5.125e-06 0)
(5.94373e-05 1.01901e-05 0)
(3.77799e-05 1.53489e-05 0)
(8.93246e-06 2.0529e-05 0)
(-2.71291e-05 2.56752e-05 0)
(-7.03568e-05 3.0745e-05 0)
(-0.000120646 3.57053e-05 0)
(-0.000177846 4.05304e-05 0)
(-0.000241771 4.52001e-05 0)
(-0.000312208 4.96989e-05 0)
(-0.000388919 5.40145e-05 0)
(-0.000471649 5.81375e-05 0)
(-0.00056013 6.20608e-05 0)
(-0.000654081 6.57791e-05 0)
(-0.000753215 6.92885e-05 0)
(-0.000857237 7.25864e-05 0)
(-0.000965848 7.56712e-05 0)
(-0.00107875 7.85424e-05 0)
(-0.00119563 8.11998e-05 0)
(-0.00131619 8.36442e-05 0)
(-0.00144014 8.58766e-05 0)
(-0.00156715 8.78988e-05 0)
(-0.00169695 8.97125e-05 0)
(-0.00182921 9.13202e-05 0)
(-0.00196367 9.27244e-05 0)
(-0.00210001 9.39279e-05 0)
(-0.00223795 9.49336e-05 0)
(-0.00237722 9.57449e-05 0)
(-0.00251752 9.6365e-05 0)
(-0.00265859 9.67973e-05 0)
(-0.00280016 9.70455e-05 0)
(-0.00294195 9.71132e-05 0)
(-0.00308372 9.70042e-05 0)
(-0.0032252 9.67223e-05 0)
(-0.00336615 9.62713e-05 0)
(-0.00350632 9.56552e-05 0)
(-0.00364548 9.4878e-05 0)
(-0.00378339 9.39437e-05 0)
(-0.00391982 9.28564e-05 0)
(-0.00405457 9.16201e-05 0)
(-0.0041874 9.02389e-05 0)
(-0.00431812 8.87169e-05 0)
(-0.00444651 8.70583e-05 0)
(-0.00457239 8.52672e-05 0)
(-0.00469556 8.33478e-05 0)
(-0.00481584 8.13043e-05 0)
(-0.00493304 7.91407e-05 0)
(-0.00504701 7.68615e-05 0)
(-0.00515756 7.44706e-05 0)
(-0.00526453 7.19724e-05 0)
(-0.00536779 6.93711e-05 0)
(-0.00546717 6.6671e-05 0)
(-0.00556253 6.38763e-05 0)
(-0.00565374 6.09912e-05 0)
(-0.00574068 5.80202e-05 0)
(-0.00582321 5.49674e-05 0)
(-0.00590122 5.18373e-05 0)
(-0.0059746 4.86341e-05 0)
(-0.00604325 4.53624e-05 0)
(-0.00610707 4.20264e-05 0)
(-0.00616597 3.86307e-05 0)
(-0.00621986 3.51796e-05 0)
(-0.00626867 3.16778e-05 0)
(-0.00631233 2.81297e-05 0)
(-0.00635077 2.454e-05 0)
(-0.00638393 2.09132e-05 0)
(-0.00641177 1.7254e-05 0)
(-0.00643424 1.3567e-05 0)
(-0.0064513 9.85711e-06 0)
(-0.00646292 6.12898e-06 0)
(-0.00646909 2.38746e-06 0)
(-0.00646978 -1.36258e-06 0)
(-0.00646499 -5.11624e-06 0)
(-0.00645472 -8.86855e-06 0)
(-0.00643896 -1.26145e-05 0)
(-0.00641774 -1.63491e-05 0)
(-0.00639108 -2.00672e-05 0)
(-0.006359 -2.37637e-05 0)
(-0.00632155 -2.74335e-05 0)
(-0.00627875 -3.10712e-05 0)
(-0.00623067 -3.46718e-05 0)
(-0.00617737 -3.82298e-05 0)
(-0.0061189 -4.174e-05 0)
(-0.00605535 -4.5197e-05 0)
(-0.00598679 -4.85955e-05 0)
(-0.00591333 -5.193e-05 0)
(-0.00583504 -5.51952e-05 0)
(-0.00575205 -5.83857e-05 0)
(-0.00566446 -6.14959e-05 0)
(-0.0055724 -6.45204e-05 0)
(-0.00547599 -6.74539e-05 0)
(-0.00537537 -7.02908e-05 0)
(-0.0052707 -7.30258e-05 0)
(-0.00516211 -7.56534e-05 0)
(-0.00504978 -7.81683e-05 0)
(-0.00493387 -8.05651e-05 0)
(-0.00481455 -8.28385e-05 0)
(-0.00469202 -8.49832e-05 0)
(-0.00456647 -8.69942e-05 0)
(-0.00443808 -8.88661e-05 0)
(-0.00430708 -9.0594e-05 0)
(-0.00417367 -9.21729e-05 0)
(-0.00403807 -9.35979e-05 0)
(-0.00390051 -9.48642e-05 0)
(-0.00376124 -9.59671e-05 0)
(-0.00362048 -9.69021e-05 0)
(-0.00347848 -9.76647e-05 0)
(-0.00333551 -9.82506e-05 0)
(-0.00319181 -9.86557e-05 0)
(-0.00304766 -9.88761e-05 0)
(-0.00290332 -9.8908e-05 0)
(-0.00275908 -9.87476e-05 0)
(-0.00261521 -9.83918e-05 0)
(-0.002472 -9.78372e-05 0)
(-0.00232973 -9.70809e-05 0)
(-0.00218871 -9.61202e-05 0)
(-0.00204923 -9.49527e-05 0)
(-0.00191159 -9.35763e-05 0)
(-0.00177609 -9.19891e-05 0)
(-0.00164303 -9.01896e-05 0)
(-0.00151273 -8.81768e-05 0)
(-0.00138549 -8.59499e-05 0)
(-0.00126161 -8.35086e-05 0)
(-0.0011414 -8.08533e-05 0)
(-0.00102517 -7.79847e-05 0)
(-0.000913219 -7.49041e-05 0)
(-0.000805844 -7.16138e-05 0)
(-0.000703342 -6.81166e-05 0)
(-0.000605999 -6.44165e-05 0)
(-0.000514096 -6.05184e-05 0)
(-0.000427904 -5.64287e-05 0)
(-0.000347683 -5.2155e-05 0)
(-0.000273677 -4.77072e-05 0)
(-0.000206113 -4.30971e-05 0)
(-0.000145198 -3.83394e-05 0)
(-9.11106e-05 -3.34525e-05 0)
(-4.39993e-05 -2.8459e-05 0)
(-3.97307e-06 -2.3387e-05 0)
(2.89071e-05 -1.82717e-05 0)
(5.464e-05 -1.3158e-05 0)
(7.32984e-05 -8.10298e-06 0)
(8.50492e-05 -3.18095e-06 0)
(9.01772e-05 1.51102e-06 0)
(8.91175e-05 5.8441e-06 0)
(8.24982e-05 9.64472e-06 0)
(7.11964e-05 1.26762e-05 0)
(5.64054e-05 1.46175e-05 0)
(3.96845e-05 1.50446e-05 0)
(2.30183e-05 1.34191e-05 0)
(9.18343e-06 9.18524e-06 0)
(1.69508e-06 2.64121e-06 0)
(2.82268e-06 -9.09986e-06 0)
(1.34033e-05 -2.31747e-05 0)
(3.10697e-05 -3.10821e-05 0)
(5.0846e-05 -3.31478e-05 0)
(6.9131e-05 -3.047e-05 0)
(8.33634e-05 -2.41423e-05 0)
(9.14602e-05 -1.50924e-05 0)
(9.17796e-05 -4.06546e-06 0)
(8.30888e-05 8.35824e-06 0)
(6.44926e-05 2.1731e-05 0)
(3.5369e-05 3.57083e-05 0)
(-4.68357e-06 5.00234e-05 0)
(-5.58888e-05 6.44691e-05 0)
(-0.000118327 7.8883e-05 0)
(-0.000191965 9.31376e-05 0)
(-0.000276673 0.000107132 0)
(-0.00037225 0.000120785 0)
(-0.000478432 0.000134035 0)
(-0.000594906 0.00014683 0)
(-0.00072132 0.00015913 0)
(-0.000857288 0.000170905 0)
(-0.0010024 0.000182128 0)
(-0.00115623 0.000192782 0)
(-0.00131832 0.000202852 0)
(-0.00148823 0.000212327 0)
(-0.00166547 0.000221202 0)
(-0.00184958 0.000229471 0)
(-0.00204008 0.000237132 0)
(-0.00223648 0.000244186 0)
(-0.00243831 0.000250635 0)
(-0.00264509 0.000256481 0)
(-0.00285632 0.000261729 0)
(-0.00307155 0.000266384 0)
(-0.00329029 0.000270453 0)
(-0.00351208 0.000273943 0)
(-0.00373645 0.000276861 0)
(-0.00396295 0.000279217 0)
(-0.00419113 0.00028102 0)
(-0.00442054 0.000282278 0)
(-0.00465076 0.000283002 0)
(-0.00488134 0.000283201 0)
(-0.00511187 0.000282887 0)
(-0.00534194 0.00028207 0)
(-0.00557114 0.000280761 0)
(-0.00579908 0.000278971 0)
(-0.00602538 0.000276712 0)
(-0.00624964 0.000273994 0)
(-0.00647152 0.00027083 0)
(-0.00669065 0.000267231 0)
(-0.00690667 0.000263209 0)
(-0.00711925 0.000258776 0)
(-0.00732807 0.000253944 0)
(-0.00753279 0.000248725 0)
(-0.00773311 0.00024313 0)
(-0.00792872 0.000237172 0)
(-0.00811934 0.000230864 0)
(-0.00830469 0.000224217 0)
(-0.00848449 0.000217243 0)
(-0.00865847 0.000209956 0)
(-0.0088264 0.000202367 0)
(-0.00898803 0.000194488 0)
(-0.00914312 0.000186333 0)
(-0.00929146 0.000177914 0)
(-0.00943284 0.000169243 0)
(-0.00956705 0.000160333 0)
(-0.00969391 0.000151197 0)
(-0.00981324 0.000141847 0)
(-0.00992486 0.000132297 0)
(-0.0100286 0.000122559 0)
(-0.0101244 0.000112647 0)
(-0.010212 0.000102573 0)
(-0.0102913 9.23506e-05 0)
(-0.0103623 8.19936e-05 0)
(-0.0104247 7.1515e-05 0)
(-0.0104786 6.09285e-05 0)
(-0.0105238 5.02478e-05 0)
(-0.0105603 3.94865e-05 0)
(-0.0105879 2.86587e-05 0)
(-0.0106068 1.77782e-05 0)
(-0.0106167 6.85936e-06 0)
(-0.0106177 -4.08371e-06 0)
(-0.0106099 -1.50366e-05 0)
(-0.0105931 -2.59847e-05 0)
(-0.0105674 -3.69135e-05 0)
(-0.0105327 -4.78081e-05 0)
(-0.0104893 -5.86537e-05 0)
(-0.010437 -6.94353e-05 0)
(-0.010376 -8.01377e-05 0)
(-0.0103063 -9.07458e-05 0)
(-0.0102281 -0.000101244 0)
(-0.0101413 -0.000111617 0)
(-0.0100461 -0.00012185 0)
(-0.0099427 -0.000131926 0)
(-0.00983115 -0.000141831 0)
(-0.00971161 -0.000151548 0)
(-0.00958425 -0.000161061 0)
(-0.00944924 -0.000170355 0)
(-0.00930677 -0.000179415 0)
(-0.00915703 -0.000188223 0)
(-0.00900024 -0.000196765 0)
(-0.00883662 -0.000205024 0)
(-0.0086664 -0.000212986 0)
(-0.00848984 -0.000220633 0)
(-0.0083072 -0.000227951 0)
(-0.00811876 -0.000234925 0)
(-0.00792479 -0.000241538 0)
(-0.00772561 -0.000247775 0)
(-0.00752152 -0.000253623 0)
(-0.00731284 -0.000259065 0)
(-0.00709991 -0.000264087 0)
(-0.00688309 -0.000268675 0)
(-0.00666272 -0.000272815 0)
(-0.00643917 -0.000276493 0)
(-0.00621284 -0.000279696 0)
(-0.0059841 -0.00028241 0)
(-0.00575336 -0.000284624 0)
(-0.00552103 -0.000286324 0)
(-0.00528753 -0.0002875 0)
(-0.00505329 -0.000288139 0)
(-0.00481874 -0.000288232 0)
(-0.00458434 -0.000287768 0)
(-0.00435054 -0.000286737 0)
(-0.00411779 -0.000285132 0)
(-0.00388657 -0.000282943 0)
(-0.00365735 -0.000280164 0)
(-0.00343059 -0.000276789 0)
(-0.0032068 -0.000272811 0)
(-0.00298645 -0.000268226 0)
(-0.00277002 -0.000263031 0)
(-0.00255802 -0.000257224 0)
(-0.00235092 -0.000250803 0)
(-0.00214922 -0.000243769 0)
(-0.0019534 -0.000236123 0)
(-0.00176395 -0.000227871 0)
(-0.00158135 -0.000219016 0)
(-0.00140606 -0.000209568 0)
(-0.00123856 -0.000199537 0)
(-0.00107928 -0.000188936 0)
(-0.000928676 -0.000177782 0)
(-0.000787156 -0.000166096 0)
(-0.00065512 -0.000153905 0)
(-0.000532941 -0.000141239 0)
(-0.000420961 -0.000128137 0)
(-0.000319484 -0.000114646 0)
(-0.00022877 -0.000100824 0)
(-0.000149024 -8.674e-05 0)
(-8.03868e-05 -7.2481e-05 0)
(-2.29183e-05 -5.81537e-05 0)
(2.34172e-05 -4.38909e-05 0)
(5.87736e-05 -2.98591e-05 0)
(8.34501e-05 -1.62689e-05 0)
(9.7924e-05 -3.38802e-06 0)
(0.000102892 8.44047e-06 0)
(9.93176e-05 1.87755e-05 0)
(8.84956e-05 2.70499e-05 0)
(7.21132e-05 3.2544e-05 0)
(5.22763e-05 3.43747e-05 0)
(3.15327e-05 3.15239e-05 0)
(1.34182e-05 2.30209e-05 0)
(2.77695e-06 8.77346e-06 0)
(3.206e-06 -1.69438e-05 0)
(1.47525e-05 -3.94306e-05 0)
(3.32173e-05 -5.08695e-05 0)
(5.27358e-05 -5.26305e-05 0)
(6.92016e-05 -4.64507e-05 0)
(7.97024e-05 -3.40028e-05 0)
(8.18251e-05 -1.67463e-05 0)
(7.36193e-05 4.10644e-06 0)
(5.35773e-05 2.7575e-05 0)
(2.05707e-05 5.28764e-05 0)
(-2.62105e-05 7.93891e-05 0)
(-8.73107e-05 0.00010662 0)
(-0.000163054 0.000134175 0)
(-0.00025358 0.000161743 0)
(-0.000358882 0.000189072 0)
(-0.000478825 0.000215961 0)
(-0.000613174 0.000242249 0)
(-0.000761609 0.000267806 0)
(-0.000923744 0.000292527 0)
(-0.00109913 0.000316328 0)
(-0.00128728 0.000339142 0)
(-0.00148767 0.000360916 0)
(-0.00169973 0.000381609 0)
(-0.00192288 0.000401188 0)
(-0.00215651 0.000419629 0)
(-0.00240002 0.000436915 0)
(-0.00265277 0.000453035 0)
(-0.00291413 0.000467982 0)
(-0.00318344 0.000481753 0)
(-0.00346008 0.000494349 0)
(-0.0037434 0.000505775 0)
(-0.00403274 0.000516038 0)
(-0.00432748 0.000525146 0)
(-0.00462696 0.00053311 0)
(-0.00493057 0.000539943 0)
(-0.00523768 0.00054566 0)
(-0.00554766 0.000550276 0)
(-0.00585992 0.000553807 0)
(-0.00617383 0.000556271 0)
(-0.00648883 0.000557687 0)
(-0.00680431 0.000558075 0)
(-0.00711972 0.000557453 0)
(-0.00743448 0.000555842 0)
(-0.00774805 0.000553264 0)
(-0.0080599 0.00054974 0)
(-0.00836948 0.000545292 0)
(-0.0086763 0.000539942 0)
(-0.00897984 0.000533712 0)
(-0.00927961 0.000526626 0)
(-0.00957515 0.000518705 0)
(-0.00986597 0.000509974 0)
(-0.0101516 0.000500456 0)
(-0.0104317 0.000490174 0)
(-0.0107058 0.000479152 0)
(-0.0109734 0.000467413 0)
(-0.0112342 0.000454983 0)
(-0.0114877 0.000441883 0)
(-0.0117337 0.00042814 0)
(-0.0119717 0.000413777 0)
(-0.0122014 0.000398818 0)
(-0.0124226 0.000383288 0)
(-0.0126347 0.000367211 0)
(-0.0128376 0.000350614 0)
(-0.013031 0.000333519 0)
(-0.0132146 0.000315952 0)
(-0.0133881 0.000297939 0)
(-0.0135513 0.000279505 0)
(-0.013704 0.000260675 0)
(-0.0138459 0.000241475 0)
(-0.0139768 0.00022193 0)
(-0.0140966 0.000202067 0)
(-0.0142051 0.000181912 0)
(-0.0143021 0.000161492 0)
(-0.0143875 0.000140832 0)
(-0.0144611 0.000119959 0)
(-0.0145228 9.89015e-05 0)
(-0.0145726 7.76857e-05 0)
(-0.0146104 5.63394e-05 0)
(-0.014636 3.48902e-05 0)
(-0.0146495 1.33661e-05 0)
(-0.0146509 -8.20468e-06 0)
(-0.01464 -2.97937e-05 0)
(-0.0146169 -5.13722e-05 0)
(-0.0145816 -7.29113e-05 0)
(-0.0145341 -9.43818e-05 0)
(-0.0144746 -0.000115754 0)
(-0.014403 -0.000136999 0)
(-0.0143194 -0.000158087 0)
(-0.014224 -0.000178987 0)
(-0.0141168 -0.000199669 0)
(-0.013998 -0.000220103 0)
(-0.0138677 -0.000240259 0)
(-0.0137262 -0.000260105 0)
(-0.0135735 -0.000279611 0)
(-0.0134099 -0.000298745 0)
(-0.0132356 -0.000317478 0)
(-0.0130509 -0.000335777 0)
(-0.012856 -0.000353611 0)
(-0.0126511 -0.000370951 0)
(-0.0124366 -0.000387763 0)
(-0.0122128 -0.000404019 0)
(-0.01198 -0.000419686 0)
(-0.0117385 -0.000434733 0)
(-0.0114887 -0.000449132 0)
(-0.011231 -0.00046285 0)
(-0.0109657 -0.000475858 0)
(-0.0106934 -0.000488127 0)
(-0.0104143 -0.000499626 0)
(-0.0101289 -0.000510328 0)
(-0.00983781 -0.000520204 0)
(-0.00954135 -0.000529225 0)
(-0.00924005 -0.000537364 0)
(-0.00893442 -0.000544595 0)
(-0.00862498 -0.000550892 0)
(-0.00831225 -0.000556229 0)
(-0.00799679 -0.000560581 0)
(-0.00767915 -0.000563927 0)
(-0.0073599 -0.000566242 0)
(-0.00703964 -0.000567505 0)
(-0.00671895 -0.000567697 0)
(-0.00639844 -0.000566797 0)
(-0.00607872 -0.000564787 0)
(-0.00576042 -0.000561652 0)
(-0.00544418 -0.000557377 0)
(-0.00513063 -0.000551947 0)
(-0.00482041 -0.000545351 0)
(-0.00451419 -0.00053758 0)
(-0.0042126 -0.000528625 0)
(-0.00391632 -0.000518481 0)
(-0.003626 -0.000507146 0)
(-0.00334229 -0.000494618 0)
(-0.00306586 -0.0004809 0)
(-0.00279735 -0.000465998 0)
(-0.00253742 -0.000449921 0)
(-0.00228669 -0.000432683 0)
(-0.00204579 -0.000414301 0)
(-0.00181535 -0.0003948 0)
(-0.00159594 -0.000374209 0)
(-0.00138816 -0.000352565 0)
(-0.00119253 -0.000329912 0)
(-0.00100958 -0.000306305 0)
(-0.000839794 -0.00028181 0)
(-0.000683599 -0.000256507 0)
(-0.00054138 -0.000230494 0)
(-0.000413456 -0.000203886 0)
(-0.00030007 -0.000176826 0)
(-0.000201378 -0.000149487 0)
(-0.000117425 -0.000122081 0)
(-4.81332e-05 -9.48655e-05 0)
(6.7332e-06 -6.81614e-05 0)
(4.75916e-05 -4.23649e-05 0)
(7.50805e-05 -1.79696e-05 0)
(9.01013e-05 4.40852e-06 0)
(9.38665e-05 2.40008e-05 0)
(8.79569e-05 3.98537e-05 0)
(7.43785e-05 5.08015e-05 0)
(5.55741e-05 5.5461e-05 0)
(3.44482e-05 5.2279e-05 0)
(1.50647e-05 3.97038e-05 0)
(3.21497e-06 1.6673e-05 0)
(3.13469e-06 -2.49244e-05 0)
(1.40481e-05 -5.53836e-05 0)
(3.06822e-05 -6.92332e-05 0)
(4.67961e-05 -6.91327e-05 0)
(5.80041e-05 -5.75946e-05 0)
(6.11733e-05 -3.69199e-05 0)
(5.36944e-05 -9.11589e-06 0)
(3.34312e-05 2.41242e-05 0)
(-1.2982e-06 6.13999e-05 0)
(-5.17794e-05 0.000101566 0)
(-0.000118957 0.000143693 0)
(-0.000203484 0.000187026 0)
(-0.000305765 0.000230955 0)
(-0.000425994 0.000274982 0)
(-0.000564187 0.000318707 0)
(-0.000720212 0.000361801 0)
(-0.000893813 0.000403998 0)
(-0.00108463 0.000445083 0)
(-0.00129221 0.000484877 0)
(-0.00151605 0.000523239 0)
(-0.00175555 0.000560053 0)
(-0.00201009 0.000595225 0)
(-0.002279 0.000628683 0)
(-0.00256158 0.000660368 0)
(-0.00285709 0.000690236 0)
(-0.00316479 0.000718255 0)
(-0.00348392 0.000744401 0)
(-0.00381368 0.000768659 0)
(-0.00415331 0.000791022 0)
(-0.00450199 0.000811488 0)
(-0.00485895 0.000830061 0)
(-0.00522339 0.000846749 0)
(-0.00559451 0.000861565 0)
(-0.00597152 0.000874523 0)
(-0.00635365 0.000885643 0)
(-0.00674011 0.000894947 0)
(-0.00713014 0.000902458 0)
(-0.00752298 0.000908201 0)
(-0.00791787 0.000912204 0)
(-0.00831408 0.000914497 0)
(-0.00871089 0.000915109 0)
(-0.00910757 0.000914072 0)
(-0.00950342 0.00091142 0)
(-0.00989776 0.000907185 0)
(-0.0102899 0.000901402 0)
(-0.0106792 0.000894106 0)
(-0.011065 0.000885333 0)
(-0.0114467 0.000875119 0)
(-0.0118237 0.000863501 0)
(-0.0121953 0.000850517 0)
(-0.012561 0.000836203 0)
(-0.0129202 0.000820598 0)
(-0.0132723 0.00080374 0)
(-0.0136169 0.000785668 0)
(-0.0139534 0.000766421 0)
(-0.0142813 0.000746037 0)
(-0.0146001 0.000724556 0)
(-0.0149094 0.000702018 0)
(-0.0152086 0.000678462 0)
(-0.0154975 0.000653929 0)
(-0.0157755 0.000628458 0)
(-0.0160422 0.00060209 0)
(-0.0162973 0.000574866 0)
(-0.0165404 0.000546826 0)
(-0.0167712 0.000518012 0)
(-0.0169894 0.000488465 0)
(-0.0171945 0.000458227 0)
(-0.0173864 0.000427339 0)
(-0.0175648 0.000395844 0)
(-0.0177293 0.000363784 0)
(-0.0178799 0.000331202 0)
(-0.0180162 0.000298141 0)
(-0.018138 0.000264644 0)
(-0.0182452 0.000230756 0)
(-0.0183377 0.00019652 0)
(-0.0184152 0.000161981 0)
(-0.0184777 0.000127184 0)
(-0.0185251 9.21733e-05 0)
(-0.0185572 5.69954e-05 0)
(-0.0185741 2.16961e-05 0)
(-0.0185756 -1.36784e-05 0)
(-0.0185618 -4.90811e-05 0)
(-0.0185326 -8.4465e-05 0)
(-0.0184881 -0.000119783 0)
(-0.0184283 -0.000154986 0)
(-0.0183533 -0.000190027 0)
(-0.0182632 -0.000224856 0)
(-0.018158 -0.000259425 0)
(-0.0180379 -0.000293685 0)
(-0.017903 -0.000327586 0)
(-0.0177536 -0.000361078 0)
(-0.0175897 -0.000394111 0)
(-0.0174117 -0.000426634 0)
(-0.0172196 -0.000458598 0)
(-0.0170139 -0.000489951 0)
(-0.0167948 -0.000520643 0)
(-0.0165625 -0.000550622 0)
(-0.0163174 -0.000579839 0)
(-0.0160598 -0.000608242 0)
(-0.0157902 -0.00063578 0)
(-0.0155088 -0.000662403 0)
(-0.0152161 -0.000688061 0)
(-0.0149125 -0.000712703 0)
(-0.0145985 -0.000736279 0)
(-0.0142746 -0.00075874 0)
(-0.0139412 -0.000780038 0)
(-0.0135989 -0.000800124 0)
(-0.0132481 -0.00081895 0)
(-0.0128895 -0.000836468 0)
(-0.0125236 -0.000852634 0)
(-0.0121511 -0.000867401 0)
(-0.0117724 -0.000880726 0)
(-0.0113883 -0.000892565 0)
(-0.0109994 -0.000902875 0)
(-0.0106064 -0.000911617 0)
(-0.0102099 -0.00091875 0)
(-0.00981074 -0.000924238 0)
(-0.00940951 -0.000928043 0)
(-0.00900697 -0.000930131 0)
(-0.00860388 -0.00093047 0)
(-0.00820099 -0.00092903 0)
(-0.00779905 -0.000925781 0)
(-0.00739886 -0.000920698 0)
(-0.0070012 -0.000913758 0)
(-0.00660687 -0.00090494 0)
(-0.00621666 -0.000894226 0)
(-0.00583138 -0.000881602 0)
(-0.00545186 -0.000867057 0)
(-0.0050789 -0.000850584 0)
(-0.00471331 -0.000832179 0)
(-0.00435591 -0.000811844 0)
(-0.00400751 -0.000789586 0)
(-0.00366891 -0.000765417 0)
(-0.0033409 -0.000739355 0)
(-0.00302427 -0.000711425 0)
(-0.00271978 -0.000681661 0)
(-0.00242817 -0.000650104 0)
(-0.00215017 -0.000616807 0)
(-0.00188648 -0.000581834 0)
(-0.00163775 -0.000545263 0)
(-0.00140459 -0.000507189 0)
(-0.00118758 -0.000467724 0)
(-0.000987238 -0.000427005 0)
(-0.000803997 -0.000385194 0)
(-0.000638226 -0.000342486 0)
(-0.000490196 -0.000299118 0)
(-0.000360067 -0.000255371 0)
(-0.00024787 -0.000211588 0)
(-0.000153483 -0.000168184 0)
(-7.66025e-05 -0.000125664 0)
(-1.67155e-05 -8.46419e-05 0)
(2.69395e-05 -4.58704e-05 0)
(5.54121e-05 -1.02685e-05 0)
(7.00849e-05 2.10427e-05 0)
(7.27245e-05 4.67047e-05 0)
(6.55345e-05 6.50926e-05 0)
(5.11652e-05 7.4305e-05 0)
(3.27569e-05 7.21984e-05 0)
(1.46885e-05 5.64898e-05 0)
(3.20376e-06 2.48771e-05 0)
(2.77338e-06 -3.21009e-05 0)
(1.18643e-05 -6.9071e-05 0)
(2.4558e-05 -8.36565e-05 0)
(3.46951e-05 -7.97951e-05 0)
(3.78276e-05 -6.08286e-05 0)
(3.07088e-05 -2.97136e-05 0)
(1.0631e-05 1.0986e-05 0)
(-2.46367e-05 5.9093e-05 0)
(-7.68724e-05 0.000112782 0)
(-0.000147455 0.000170535 0)
(-0.000237415 0.000231096 0)
(-0.000347477 0.000293432 0)
(-0.000478101 0.00035669 0)
(-0.000629521 0.000420171 0)
(-0.000801771 0.000483298 0)
(-0.000994721 0.000545597 0)
(-0.0012081 0.000606677 0)
(-0.00144151 0.000666218 0)
(-0.00169446 0.000723956 0)
(-0.00196636 0.000779674 0)
(-0.00225656 0.000833196 0)
(-0.00256435 0.000884379 0)
(-0.00288895 0.000933108 0)
(-0.00322957 0.000979292 0)
(-0.00358535 0.00102286 0)
(-0.00395545 0.00106375 0)
(-0.00433895 0.00110194 0)
(-0.00473497 0.00113738 0)
(-0.00514257 0.00117008 0)
(-0.00556085 0.00120001 0)
(-0.00598885 0.00122718 0)
(-0.00642566 0.00125161 0)
(-0.00687034 0.00127329 0)
(-0.00732196 0.00129227 0)
(-0.0077796 0.00130855 0)
(-0.00824234 0.00132216 0)
(-0.00870927 0.00133315 0)
(-0.00917949 0.00134155 0)
(-0.00965211 0.00134739 0)
(-0.0101263 0.00135071 0)
(-0.0106011 0.00135157 0)
(-0.0110757 0.00135 0)
(-0.0115493 0.00134605 0)
(-0.0120211 0.00133977 0)
(-0.0124902 0.00133121 0)
(-0.012956 0.00132042 0)
(-0.0134175 0.00130745 0)
(-0.013874 0.00129236 0)
(-0.0143249 0.0012752 0)
(-0.0147694 0.00125602 0)
(-0.0152068 0.00123488 0)
(-0.0156365 0.00121183 0)
(-0.0160577 0.00118693 0)
(-0.0164698 0.00116024 0)
(-0.0168722 0.00113181 0)
(-0.0172644 0.0011017 0)
(-0.0176457 0.00106997 0)
(-0.0180155 0.00103668 0)
(-0.0183734 0.00100189 0)
(-0.0187189 0.000965649 0)
(-0.0190513 0.000928024 0)
(-0.0193703 0.000889074 0)
(-0.0196753 0.000848858 0)
(-0.0199661 0.000807437 0)
(-0.020242 0.000764872 0)
(-0.0205028 0.000721224 0)
(-0.0207481 0.000676554 0)
(-0.0209775 0.000630925 0)
(-0.0211907 0.000584398 0)
(-0.0213875 0.000537038 0)
(-0.0215674 0.000488907 0)
(-0.0217303 0.000440069 0)
(-0.0218759 0.000390588 0)
(-0.0220041 0.000340529 0)
(-0.0221145 0.000289958 0)
(-0.0222071 0.000238941 0)
(-0.0222817 0.000187543 0)
(-0.0223382 0.000135832 0)
(-0.0223765 8.38758e-05 0)
(-0.0223966 3.17417e-05 0)
(-0.0223982 -2.05013e-05 0)
(-0.0223816 -7.2784e-05 0)
(-0.0223466 -0.000125037 0)
(-0.0222932 -0.000177189 0)
(-0.0222216 -0.00022917 0)
(-0.0221318 -0.000280909 0)
(-0.0220238 -0.000332333 0)
(-0.0218979 -0.00038337 0)
(-0.0217542 -0.000433948 0)
(-0.0215928 -0.000483993 0)
(-0.021414 -0.000533431 0)
(-0.0212179 -0.000582189 0)
(-0.0210049 -0.000630193 0)
(-0.0207752 -0.000677367 0)
(-0.0205291 -0.000723637 0)
(-0.020267 -0.000768929 0)
(-0.0199892 -0.000813167 0)
(-0.019696 -0.000856277 0)
(-0.019388 -0.000898183 0)
(-0.0190656 -0.000938812 0)
(-0.0187291 -0.000978088 0)
(-0.0183791 -0.00101594 0)
(-0.0180162 -0.00105229 0)
(-0.0176408 -0.00108706 0)
(-0.0172535 -0.00112019 0)
(-0.0168549 -0.00115161 0)
(-0.0164456 -0.00118123 0)
(-0.0160262 -0.001209 0)
(-0.0155975 -0.00123484 0)
(-0.0151601 -0.00125868 0)
(-0.0147147 -0.00128046 0)
(-0.014262 -0.00130012 0)
(-0.0138028 -0.00131759 0)
(-0.0133379 -0.00133281 0)
(-0.012868 -0.00134571 0)
(-0.012394 -0.00135626 0)
(-0.0119167 -0.00136438 0)
(-0.0114369 -0.00137002 0)
(-0.0109556 -0.00137315 0)
(-0.0104735 -0.0013737 0)
(-0.00999167 -0.00137164 0)
(-0.00951091 -0.00136692 0)
(-0.00903217 -0.00135952 0)
(-0.00855639 -0.00134939 0)
(-0.0080845 -0.00133651 0)
(-0.00761745 -0.00132085 0)
(-0.00715621 -0.00130239 0)
(-0.00670171 -0.00128113 0)
(-0.00625493 -0.00125705 0)
(-0.00581683 -0.00123015 0)
(-0.00538835 -0.00120043 0)
(-0.00497045 -0.00116791 0)
(-0.00456406 -0.00113262 0)
(-0.00417012 -0.00109457 0)
(-0.00378954 -0.00105382 0)
(-0.00342319 -0.00101041 0)
(-0.00307197 -0.000964415 0)
(-0.00273668 -0.000915913 0)
(-0.00241815 -0.000865006 0)
(-0.00211712 -0.000811812 0)
(-0.00183429 -0.000756477 0)
(-0.00157033 -0.000699173 0)
(-0.00132579 -0.000640104 0)
(-0.00110119 -0.000579515 0)
(-0.000896918 -0.000517696 0)
(-0.000713272 -0.000454993 0)
(-0.000550416 -0.000391819 0)
(-0.000408366 -0.000328669 0)
(-0.000286967 -0.000266135 0)
(-0.000185867 -0.000204928 0)
(-0.000104481 -0.000145904 0)
(-4.19642e-05 -9.00918e-05 0)
(2.83051e-06 -3.87291e-05 0)
(3.13908e-05 6.70011e-06 0)
(4.55922e-05 4.44272e-05 0)
(4.77469e-05 7.2363e-05 0)
(4.06203e-05 8.80747e-05 0)
(2.74873e-05 8.87925e-05 0)
(1.28328e-05 7.14355e-05 0)
(2.90062e-06 3.24512e-05 0)
(2.22951e-06 -3.78325e-05 0)
(8.63952e-06 -7.89818e-05 0)
(1.57634e-05 -9.20948e-05 0)
(1.78726e-05 -8.2248e-05 0)
(1.06451e-05 -5.35891e-05 0)
(-9.18187e-06 -9.72386e-06 0)
(-4.43327e-05 4.62341e-05 0)
(-9.70605e-05 0.00011163 0)
(-0.000169177 0.000184218 0)
(-0.0002621 0.000262107 0)
(-0.000376902 0.00034371 0)
(-0.000514345 0.000427705 0)
(-0.000674921 0.000512988 0)
(-0.000858881 0.000598638 0)
(-0.00106627 0.00068389 0)
(-0.00129696 0.000768108 0)
(-0.00155064 0.000850762 0)
(-0.00182691 0.000931413 0)
(-0.00212522 0.00100969 0)
(-0.00244493 0.00108531 0)
(-0.00278533 0.001158 0)
(-0.00314562 0.00122757 0)
(-0.00352495 0.00129386 0)
(-0.00392242 0.00135673 0)
(-0.0043371 0.00141607 0)
(-0.00476801 0.0014718 0)
(-0.00521415 0.00152387 0)
(-0.0056745 0.00157222 0)
(-0.00614803 0.00161684 0)
(-0.00663368 0.00165771 0)
(-0.00713041 0.00169481 0)
(-0.00763714 0.00172817 0)
(-0.00815283 0.0017578 0)
(-0.00867641 0.00178371 0)
(-0.00920683 0.00180595 0)
(-0.00974303 0.00182455 0)
(-0.010284 0.00183954 0)
(-0.0108287 0.00185098 0)
(-0.0113761 0.00185891 0)
(-0.0119251 0.0018634 0)
(-0.0124749 0.00186449 0)
(-0.0130245 0.00186225 0)
(-0.0135728 0.00185674 0)
(-0.0141189 0.00184803 0)
(-0.014662 0.00183618 0)
(-0.015201 0.00182126 0)
(-0.0157352 0.00180335 0)
(-0.0162636 0.00178251 0)
(-0.0167854 0.00175881 0)
(-0.0172998 0.00173234 0)
(-0.017806 0.00170317 0)
(-0.0183032 0.00167136 0)
(-0.0187906 0.00163701 0)
(-0.0192675 0.00160018 0)
(-0.0197331 0.00156096 0)
(-0.0201869 0.00151943 0)
(-0.0206281 0.00147565 0)
(-0.021056 0.00142973 0)
(-0.0214701 0.00138172 0)
(-0.0218697 0.00133173 0)
(-0.0222543 0.00127982 0)
(-0.0226234 0.00122609 0)
(-0.0229763 0.0011706 0)
(-0.0233126 0.00111346 0)
(-0.0236318 0.00105474 0)
(-0.0239335 0.000994518 0)
(-0.0242172 0.000932891 0)
(-0.0244826 0.000869941 0)
(-0.0247292 0.000805753 0)
(-0.0249567 0.000740416 0)
(-0.0251648 0.000674016 0)
(-0.0253531 0.000606642 0)
(-0.0255215 0.000538383 0)
(-0.0256696 0.000469328 0)
(-0.0257973 0.000399567 0)
(-0.0259043 0.000329192 0)
(-0.0259905 0.000258295 0)
(-0.0260557 0.000186968 0)
(-0.0260999 0.000115304 0)
(-0.0261229 4.33973e-05 0)
(-0.0261247 -2.86568e-05 0)
(-0.0261053 -0.000100763 0)
(-0.0260646 -0.000172825 0)
(-0.0260028 -0.000244746 0)
(-0.0259198 -0.000316427 0)
(-0.0258157 -0.000387771 0)