/*--------------------------------*- C++ -*----------------------------------*\
  =========                 |
  \\      /  F ield         | OpenFOAM: The Open Source CFD Toolbox
   \\    /   O peration     | Website:  https://openfoam.org
    \\  /    A nd           | Version:  7
     \\/     M anipulation  |
\*---------------------------------------------------------------------------*/
FoamFile
{
    version     2.0;
    format      ascii;
    class       volScalarField;
    location    "0.475";
    object      p;
}
// * * * * * * * * * * * * * * * * * * * * * * * * * * * * * * * * * * * * * //

dimensions      [0 2 -2 0 0 0 0];

internalField   nonuniform List<scalar> 
25600
(
2.30543e-06
0.000115742
0.000144839
3.67372e-05
-0.000216554
-0.000610989
-0.00113552
-0.0017756
-0.00251577
-0.00334084
-0.00423632
-0.00518858
-0.006185
-0.00721394
-0.00826469
-0.00932742
-0.0103931
-0.0114535
-0.0125009
-0.0135285
-0.01453
-0.0154995
-0.0164318
-0.0173221
-0.0181659
-0.0189595
-0.019699
-0.0203815
-0.0210039
-0.0215636
-0.0220585
-0.0224865
-0.0228459
-0.0231351
-0.0233529
-0.0234982
-0.0235702
-0.0235682
-0.0234918
-0.0233406
-0.0231146
-0.0228138
-0.0224384
-0.0219886
-0.0214649
-0.020868
-0.0201986
-0.0194574
-0.0186454
-0.0177637
-0.0168134
-0.0157957
-0.014712
-0.0135638
-0.0123526
-0.0110798
-0.00974735
-0.00835686
-0.00691018
-0.00540921
-0.00385592
-0.00225233
-0.000600531
0.00109734
0.00283907
0.00462241
0.00644505
0.00830464
0.0101988
0.012125
0.0140809
0.0160638
0.0180713
0.0201007
0.0221494
0.0242148
0.0262941
0.0283846
0.0304836
0.0325884
0.0346962
0.0368042
0.0389095
0.0410095
0.0431013
0.045182
0.047249
0.0492993
0.0513301
0.0533388
0.0553225
0.0572784
0.0592039
0.0610962
0.0629526
0.0647706
0.0665475
0.0682808
0.0699679
0.0716065
0.0731941
0.0747283
0.076207
0.0776279
0.078989
0.0802881
0.0815233
0.0826929
0.0837949
0.0848279
0.0857902
0.0866805
0.0874974
0.0882397
0.0889066
0.0894969
0.0900101
0.0904455
0.0908028
0.0910815
0.0912817
0.0914035
0.0914472
0.0914132
0.0913022
0.0911152
0.0908533
0.0905179
0.0901106
0.0896332
0.0890878
0.088477
0.0878034
0.0870701
0.0862802
0.0854377
0.0845464
0.0836107
0.0826356
0.0816261
0.0805881
0.0795276
0.0784514
0.0773666
0.0762812
0.0752036
0.074143
0.0731092
0.072113
0.0711659
0.0702801
0.069469
0.0687465
0.0681269
0.0676247
0.067253
0.0670211
0.0669309
0.0669715
0.067087
-0.000107644
4.38752e-06
8.64256e-06
-0.000112233
-0.000354267
-0.000715786
-0.00119021
-0.00176708
-0.00243441
-0.00317985
-0.0039912
-0.00485663
-0.00576492
-0.00670552
-0.00766858
-0.00864494
-0.00962615
-0.0106044
-0.0115724
-0.0125235
-0.0134516
-0.0143511
-0.0152169
-0.0160442
-0.0168288
-0.0175667
-0.0182545
-0.0188889
-0.019467
-0.0199863
-0.0204445
-0.0208395
-0.0211695
-0.0214331
-0.0216289
-0.0217558
-0.0218129
-0.0217996
-0.0217152
-0.0215594
-0.0213321
-0.0210332
-0.0206628
-0.0202212
-0.0197087
-0.019126
-0.0184736
-0.0177522
-0.0169629
-0.0161064
-0.015184
-0.0141967
-0.0131459
-0.0120328
-0.010859
-0.00962603
-0.00833538
-0.00698879
-0.00558799
-0.00413481
-0.00263113
-0.0010789
0.000519874
0.00216312
0.00384873
0.00557452
0.00733826
0.00913769
0.0109705
0.0128343
0.0147267
0.0166452
0.0185874
0.0205508
0.0225328
0.0245309
0.0265424
0.0285647
0.0305952
0.0326312
0.03467
0.036709
0.0387454
0.0407766
0.0427997
0.0448122
0.0468112
0.0487941
0.0507582
0.0527008
0.0546191
0.0565107
0.0583727
0.0602027
0.061998
0.0637561
0.0654745
0.0671508
0.0687826
0.0703674
0.071903
0.0733872
0.0748178
0.0761928
0.07751
0.0787675
0.0799636
0.0810964
0.0821643
0.0831657
0.0840992
0.0849635
0.0857573
0.0864796
0.0871294
0.087706
0.0882085
0.0886366
0.0889899
0.0892681
0.0894713
0.0895996
0.0896534
0.0896332
0.0895397
0.089374
0.0891371
0.0888304
0.0884557
0.0880147
0.0875097
0.0869429
0.0863172
0.0856355
0.0849011
0.0841176
0.0832889
0.0824195
0.0815139
0.0805772
0.079615
0.0786333
0.0776384
0.0766372
0.0756373
0.0746465
0.0736736
0.0727276
0.0718184
0.0709563
0.0701523
0.0694178
0.0687646
0.0682042
0.0677477
0.0674044
0.0671793
0.0670727
0.0670866
0.0672023
-0.000136093
4.77926e-07
4.78816e-06
-0.000117388
-0.000349511
-0.000688531
-0.00112903
-0.00166227
-0.00227818
-0.00296623
-0.00371581
-0.00451646
-0.00535811
-0.00623113
-0.00712645
-0.00803554
-0.00895044
-0.00986375
-0.0107686
-0.0116586
-0.0125278
-0.0133709
-0.0141829
-0.0149592
-0.0156955
-0.0163881
-0.0170334
-0.0176284
-0.0181702
-0.0186561
-0.0190839
-0.0194516
-0.0197574
-0.0199998
-0.0201773
-0.0202889
-0.0203336
-0.0203107
-0.0202196
-0.0200599
-0.0198315
-0.0195341
-0.019168
-0.0187332
-0.0182301
-0.0176592
-0.017021
-0.0163163
-0.0155459
-0.0147107
-0.0138116
-0.0128499
-0.0118266
-0.0107432
-0.00960097
-0.00840137
-0.00714595
-0.00583633
-0.00447418
-0.00306126
-0.0015994
-9.04616e-05
0.0014636
0.0030608
0.00469907
0.00637632
0.00809038
0.00983906
0.0116201
0.0134312
0.01527
0.0171343
0.0190214
0.0209291
0.0228549
0.0247962
0.0267505
0.0287153
0.030688
0.032666
0.0346467
0.0366275
0.0386059
0.040579
0.0425444
0.0444993
0.0464411
0.0483673
0.0502752
0.0521621
0.0540255
0.0558629
0.0576716
0.0594491
0.0611931
0.0629009
0.0645702
0.0661986
0.0677839
0.0693236
0.0708157
0.0722579
0.0736482
0.0749846
0.0762651
0.0774878
0.0786511
0.0797532
0.0807925
0.0817676
0.0826771
0.0835196
0.0842942
0.0849998
0.0856354
0.0862004
0.0866941
0.0871161
0.087466
0.0877438
0.0879495
0.0880832
0.0881454
0.0881366
0.0880576
0.0879093
0.087693
0.0874101
0.0870622
0.0866512
0.0861792
0.0856486
0.085062
0.0844225
0.0837332
0.0829977
0.0822199
0.0814039
0.0805544
0.0796763
0.0787748
0.0778558
0.0769254
0.0759902
0.0750573
0.0741341
0.0732289
0.0723501
0.0715066
0.0707081
0.0699642
0.0692851
0.068681
0.0681616
0.0677363
0.0674129
0.0671957
0.0670864
0.0671005
0.0672427
-2.83288e-05
0.000121515
0.000127427
5.32588e-06
-0.000220906
-0.00054617
-0.000964789
-0.00146859
-0.00204855
-0.00269525
-0.00339919
-0.00415096
-0.00494141
-0.00576174
-0.00660357
-0.00745893
-0.00832039
-0.00918094
-0.0100341
-0.0108737
-0.0116941
-0.0124902
-0.0132572
-0.0139905
-0.0146861
-0.0153402
-0.0159496
-0.016511
-0.0170216
-0.017479
-0.0178808
-0.018225
-0.0185099
-0.0187339
-0.0188956
-0.0189939
-0.0190279
-0.0189967
-0.0188998
-0.0187368
-0.0185074
-0.0182114
-0.017849
-0.0174202
-0.0169253
-0.0163648
-0.0157392
-0.0150491
-0.0142954
-0.0134788
-0.0126003
-0.0116611
-0.0106622
-0.00960483
-0.0084904
-0.00732028
-0.00609595
-0.00481896
-0.00349094
-0.00211359
-0.000688669
0.00078201
0.00229656
0.00385305
0.00544947
0.0070838
0.00875393
0.0104577
0.012193
0.0139575
0.015749
0.0175652
0.0194037
0.0212621
0.0231381
0.0250292
0.026933
0.0288469
0.0307685
0.0326953
0.0346247
0.0365542
0.0384811
0.0404031
0.0423174
0.0442215
0.0461129
0.047989
0.0498473
0.0516852
0.0535002
0.0552898
0.0570515
0.0587829
0.0604816
0.0621452
0.0637713
0.0653576
0.066902
0.0684021
0.0698559
0.0712613
0.0726162
0.0739187
0.075167
0.0763593
0.0774938
0.078569
0.0795833
0.0805353
0.0814237
0.0822473
0.0830051
0.083696
0.0843192
0.0848741
0.0853601
0.0857767
0.0861238
0.0864011
0.0866088
0.0867472
0.0868166
0.0868176
0.086751
0.0866178
0.0864191
0.0861565
0.0858316
0.0854461
0.0850023
0.0845024
0.0839491
0.0833453
0.0826942
0.0819992
0.081264
0.0804929
0.0796901
0.0788606
0.0780093
0.0771419
0.0762642
0.0753825
0.0745035
0.0736343
0.0727826
0.0719561
0.0711632
0.0704127
0.0697134
0.0690744
0.0685047
0.0680133
0.0676084
0.0672977
0.0670858
0.0669768
0.0669941
0.0671531
0.000224228
0.000363654
0.000360091
0.000232179
5.86574e-06
-0.000312484
-0.000716864
-0.00119947
-0.00175201
-0.00236601
-0.00303288
-0.0037441
-0.00449135
-0.00526659
-0.00606206
-0.00687042
-0.00768469
-0.0084983
-0.0093051
-0.0100993
-0.0108756
-0.0116289
-0.0123547
-0.0130486
-0.0137067
-0.0143254
-0.0149014
-0.0154316
-0.0159133
-0.0163441
-0.0167216
-0.0170439
-0.0173092
-0.0175159
-0.0176628
-0.0177487
-0.0177725
-0.0177336
-0.0176313
-0.0174652
-0.0172349
-0.0169403
-0.0165814
-0.0161584
-0.0156714
-0.0151209
-0.0145073
-0.0138313
-0.0130936
-0.0122949
-0.0114362
-0.0105186
-0.00954301
-0.00851075
-0.00742305
-0.00628126
-0.00508682
-0.00384121
-0.00254602
-0.00120288
0.000186502
0.00162037
0.0030969
0.00461421
0.00617036
0.00776338
0.00939122
0.0110518
0.012743
0.0144627
0.0162086
0.0179785
0.0197702
0.0215812
0.0234093
0.0252521
0.0271073
0.0289723
0.0308447
0.0327222
0.0346022
0.0364823
0.0383599
0.0402326
0.0420979
0.0439532
0.0457961
0.0476242
0.0494348
0.0512256
0.0529941
0.0547379
0.0564545
0.0581417
0.059797
0.0614181
0.0630028
0.0645488
0.066054
0.0675162
0.0689333
0.0703034
0.0716245
0.0728947
0.0741122
0.0752753
0.0763824
0.0774319
0.0784223
0.0793522
0.0802206
0.0810261
0.0817678
0.0824447
0.0830561
0.0836013
0.0840798
0.0844913
0.0848355
0.0851124
0.085322
0.0854646
0.0855406
0.0855507
0.0854957
0.0853765
0.0851944
0.0849508
0.0846472
0.0842855
0.0838678
0.0833964
0.0828739
0.0823031
0.0816871
0.0810293
0.0803333
0.0796031
0.078843
0.0780575
0.0772516
0.0764306
0.0756
0.0747658
0.0739344
0.0731125
0.072307
0.0715253
0.0707752
0.0700646
0.0694016
0.0687944
0.0682512
0.0677801
0.0673888
0.0670847
0.0668729
0.0667592
0.0667694
0.0669225
0.000617835
0.000725459
0.000699927
0.000558284
0.000324685
5.9672e-06
-0.000391732
-0.000860991
-0.00139417
-0.00198356
-0.0026214
-0.00329994
-0.00401162
-0.00474905
-0.00550512
-0.00627304
-0.0070463
-0.00781878
-0.00858467
-0.00933854
-0.0100753
-0.0107902
-0.0114788
-0.012137
-0.012761
-0.0133473
-0.0138928
-0.0143944
-0.0148495
-0.0152556
-0.0156107
-0.0159127
-0.0161598
-0.0163506
-0.0164837
-0.016558
-0.0165725
-0.0165264
-0.0164191
-0.0162501
-0.0160192
-0.015726
-0.0153706
-0.0149531
-0.0144737
-0.0139328
-0.0133307
-0.0126681
-0.0119457
-0.0111641
-0.0103244
-0.00942733
-0.00847409
-0.00746578
-0.00640362
-0.00528891
-0.00412303
-0.00290743
-0.00164363
-0.000333201
0.0010222
0.00242086
0.00386102
0.00534084
0.00685847
0.00841196
0.00999935
0.0116186
0.0132677
0.0149444
0.0166467
0.0183724
0.0201192
0.0218849
0.0236672
0.0254639
0.0272725
0.0290907
0.0309162
0.0327465
0.0345793
0.0364121
0.0382426
0.0400683
0.0418867
0.0436954
0.0454921
0.0472742
0.0490394
0.0507853
0.0525094
0.0542095
0.0558832
0.0575281
0.0591421
0.0607228
0.062268
0.0637756
0.0652435
0.0666696
0.0680519
0.0693884
0.0706773
0.0719168
0.0731051
0.0742405
0.0753214
0.0763465
0.0773142
0.0782233
0.0790725
0.0798608
0.0805872
0.0812508
0.081851
0.082387
0.0828584
0.083265
0.0836064
0.0838826
0.0840938
0.0842403
0.0843225
0.084341
0.0842966
0.0841904
0.0840234
0.0837972
0.0835133
0.0831735
0.0827798
0.0823346
0.0818403
0.0812996
0.0807157
0.0800917
0.0794312
0.078738
0.0780162
0.0772702
0.0765047
0.0757248
0.0749358
0.0741432
0.0733531
0.0725717
0.0718056
0.0710616
0.0703467
0.0696683
0.0690338
0.0684507
0.0679264
0.0674683
0.0670836
0.0667793
0.0665611
0.0664351
0.0664263
0.0665525
0.00114197
0.00120082
0.00114191
0.000978299
0.000729874
0.0004034
4.92856e-06
-0.000458604
-0.000980169
-0.00155274
-0.00216927
-0.00282275
-0.00350625
-0.00421304
-0.00493658
-0.00567059
-0.00640905
-0.00714624
-0.00787674
-0.00859542
-0.00929748
-0.00997842
-0.010634
-0.0112604
-0.0118538
-0.012411
-0.0129289
-0.0134047
-0.0138356
-0.0142195
-0.0145541
-0.0148375
-0.0150681
-0.0152443
-0.0153649
-0.0154286
-0.0154345
-0.0153819
-0.0152701
-0.0150986
-0.0148671
-0.0145754
-0.0142234
-0.0138113
-0.0133391
-0.0128073
-0.0122162
-0.0115663
-0.0108584
-0.0100931
-0.0092712
-0.00839372
-0.00746163
-0.00647603
-0.00543809
-0.00434906
-0.00321027
-0.00202313
-0.000789093
0.000490298
0.00181345
0.00317871
0.00458435
0.00602862
0.00750968
0.00902567
0.0105747
0.0121547
0.0137637
0.0153998
0.0170607
0.0187444
0.0204486
0.0221713
0.0239102
0.025663
0.0274275
0.0292013
0.0309823
0.0327679
0.034556
0.0363441
0.0381298
0.0399109
0.0416849
0.0434495
0.0452024
0.046941
0.0486632
0.0503666
0.0520488
0.0537075
0.0553406
0.0569456
0.0585205
0.060063
0.061571
0.0630423
0.064475
0.0658671
0.0672165
0.0685214
0.0697799
0.0709904
0.0721511
0.0732604
0.0743168
0.0753188
0.0762652
0.0771545
0.0779858
0.0787579
0.0794699
0.080121
0.0807105
0.0812378
0.0817025
0.0821043
0.0824429
0.0827184
0.082931
0.0830809
0.0831686
0.0831947
0.08316
0.0830655
0.0829123
0.0827019
0.0824359
0.0821159
0.081744
0.0813224
0.0808535
0.08034
0.0797848
0.079191
0.0785621
0.0779018
0.0772139
0.0765027
0.0757726
0.0750285
0.0742753
0.0735184
0.0727633
0.0720159
0.0712822
0.0705687
0.0698818
0.0692282
0.0686147
0.0680482
0.0675353
0.067083
0.066698
0.0663867
0.0661548
0.0660088
0.0659698
0.0660522
0.00178278
0.00177991
0.00167788
0.00148456
0.00121408
0.000872834
0.000466648
1.85223e-06
-0.000515153
-0.00107798
-0.00168023
-0.00231554
-0.00297763
-0.00366033
-0.00435765
-0.00506381
-0.00577323
-0.0064806
-0.00718087
-0.00786922
-0.00854114
-0.00919238
-0.00981895
-0.0104171
-0.0109835
-0.0115147
-0.0120079
-0.0124604
-0.0128696
-0.0132333
-0.0135494
-0.0138161
-0.0140316
-0.0141946
-0.0143037
-0.0143579
-0.0143561
-0.0142976
-0.0141818
-0.0140081
-0.0137763
-0.0134861
-0.0131375
-0.0127305
-0.0122653
-0.0117422
-0.0111615
-0.0105237
-0.00982956
-0.00907964
-0.00827476
-0.00741582
-0.00650379
-0.00553971
-0.00452472
-0.00346003
-0.00234692
-0.00118675
1.90697e-05
0.00126904
0.00256163
0.00389522
0.00526814
0.00667869
0.00812509
0.00960551
0.0111181
0.0126609
0.0142321
0.0158295
0.0174512
0.019095
0.020759
0.0224409
0.0241386
0.0258499
0.0275725
0.0293043
0.0310431
0.0327864
0.0345321
0.0362778
0.0380212
0.0397601
0.0414922
0.043215
0.0449264
0.046624
0.0483055
0.0499687
0.0516112
0.0532309
0.0548256
0.056393
0.057931
0.0594374
0.0609103
0.0623475
0.063747
0.0651069
0.0664253
0.0677004
0.0689304
0.0701135
0.0712483
0.072333
0.0733663
0.0743467
0.0752729
0.0761437
0.0769581
0.0777149
0.0784134
0.0790526
0.0796321
0.0801511
0.0806093
0.0810065
0.0813424
0.0816171
0.0818308
0.0819836
0.0820762
0.082109
0.082083
0.0819991
0.0818584
0.0816623
0.0814123
0.0811102
0.0807579
0.0803574
0.0799113
0.079422
0.0788924
0.0783255
0.0777246
0.0770932
0.076435
0.0757541
0.0750547
0.0743412
0.0736186
0.0728917
0.0721657
0.0714462
0.0707388
0.0700492
0.0693836
0.0687481
0.0681487
0.0675919
0.0670838
0.0666306
0.0662385
0.0659135
0.0656612
0.0654876
0.0654088
0.0654343
0.00252567
0.00245152
0.00229848
0.00206868
0.00176959
0.00140716
0.000986917
0.000514514
-4.3066e-06
-0.000563771
-0.0011581
-0.00178152
-0.00242834
-0.00309293
-0.00376983
-0.0044537
-0.00513941
-0.00582205
-0.00649689
-0.00715946
-0.00780553
-0.00843109
-0.00903238
-0.00960589
-0.0101483
-0.0106566
-0.0111279
-0.0115597
-0.0119495
-0.0122951
-0.0125946
-0.0128462
-0.0130482
-0.0131993
-0.0132981
-0.0133436
-0.0133349
-0.0132712
-0.0131519
-0.0129764
-0.0127445
-0.012456
-0.0121107
-0.0117087
-0.0112502
-0.0107353
-0.0101645
-0.00953831
-0.00885721
-0.00812189
-0.00733313
-0.00649176
-0.00559872
-0.00465504
-0.00366179
-0.00262015
-0.00153136
-0.000396737
0.000782352
0.00200446
0.00326809
0.00457168
0.00591361
0.00729221
0.00870577
0.0101525
0.0116306
0.0131382
0.0146734
0.0162343
0.0178188
0.0194249
0.0210507
0.022694
0.0243527
0.0260247
0.0277078
0.0293998
0.0310986
0.0328018
0.0345074
0.0362131
0.0379165
0.0396156
0.0413079
0.0429913
0.0446635
0.0463223
0.0479654
0.0495906
0.0511957
0.0527786
0.0543371
0.0558689
0.0573722
0.0588447
0.0602844
0.0616893
0.0630576
0.0643873
0.0656765
0.0669236
0.0681267
0.0692842
0.0703945
0.0714561
0.0724676
0.0734277
0.074335
0.0751884
0.0759868
0.0767293
0.077415
0.0780431
0.078613
0.0791242
0.0795763
0.079969
0.0803022
0.0805759
0.0807903
0.0809457
0.0810425
0.0810814
0.0810632
0.0809887
0.0808591
0.0806758
0.0804402
0.080154
0.0798191
0.0794376
0.0790116
0.0785438
0.0780368
0.0774935
0.0769171
0.0763109
0.0756784
0.0750236
0.0743503
0.0736629
0.0729659
0.0722638
0.0715616
0.0708643
0.0701773
0.0695058
0.0688553
0.0682316
0.0676403
0.0670869
0.0665774
0.0661171
0.0657118
0.065367
0.0650878
0.06488
0.0647535
0.0647122
0.00335645
0.00320414
0.00299395
0.00272198
0.00238861
0.0019993
0.00155929
0.00107356
0.000547173
-1.46995e-05
-0.000606855
-0.00122409
-0.00186125
-0.00251322
-0.00317501
-0.00384174
-0.00450869
-0.00517132
-0.00582524
-0.00646631
-0.00709056
-0.00769424
-0.00827381
-0.00882597
-0.00934759
-0.00983579
-0.0102879
-0.0107014
-0.0110739
-0.0114036
-0.0116883
-0.0119264
-0.0121163
-0.0122568
-0.0123464
-0.0123843
-0.0123695
-0.0123012
-0.0121789
-0.012002
-0.0117703
-0.0114835
-0.0111415
-0.0107444
-0.0102922
-0.00978532
-0.009224
-0.00860872
-0.00794003
-0.00721856
-0.00644506
-0.00562033
-0.00474528
-0.00382089
-0.00284821
-0.00182838
-0.000762601
0.000347861
0.00150167
0.00269742
0.00393366
0.00520888
0.00652149
0.00786988
0.00925238
0.0106673
0.0121127
0.013587
0.0150882
0.0166145
0.0181639
0.0197344
0.0213241
0.0229309
0.0245527
0.0261875
0.0278332
0.0294877
0.0311487
0.0328142
0.0344819
0.0361497
0.0378154
0.0394768
0.0411317
0.0427778
0.0444131
0.0460353
0.0476422
0.0492317
0.0508016
0.0523498
0.0538741
0.0553726
0.0568431
0.0582836
0.0596922
0.0610669
0.0624058
0.0637071
0.0649689
0.0661896
0.0673674
0.0685008
0.0695883
0.0706282
0.0716193
0.0725603
0.0734498
0.0742869
0.0750703
0.0757993
0.076473
0.0770906
0.0776515
0.0781552
0.0786014
0.0789898
0.0793204
0.079593
0.0798079
0.0799653
0.0800658
0.08011
0.0800985
0.0800324
0.0799127
0.0797407
0.0795179
0.0792458
0.0789263
0.0785613
0.0781532
0.0777042
0.0772169
0.0766941
0.0761389
0.0755543
0.0749438
0.0743111
0.0736598
0.072994
0.0723179
0.0716358
0.0709523
0.0702721
0.0696001
0.0689411
0.0683003
0.0676828
0.0670937
0.0665383
0.0660216
0.0655487
0.0651247
0.0647544
0.0644428
0.0641952
0.0640147
0.0638995
0.00426179
0.00402655
0.00375451
0.00343573
0.00306327
0.00264216
0.00217737
0.00167321
0.0011341
0.000564631
-3.05471e-05
-0.000646766
-0.00127936
-0.00192373
-0.0025753
-0.00322963
-0.00388239
-0.0045294
-0.00516661
-0.00579017
-0.00639639
-0.00698177
-0.007543
-0.00807696
-0.00858073
-0.00905157
-0.00948694
-0.00988448
-0.010242
-0.0105576
-0.0108293
-0.0110555
-0.0112348
-0.0113659
-0.0114475
-0.0114786
-0.0114585
-0.0113863
-0.0112615
-0.0110835
-0.0108522
-0.0105673
-0.0102286
-0.00983619
-0.00939023
-0.00889093
-0.00833863
-0.00773375
-0.00707684
-0.0063685
-0.00560944
-0.00480045
-0.0039424
-0.00303624
-0.002083
-0.00108377
-3.9721e-05
0.00104792
0.00217785
0.00334872
0.0045591
0.00580752
0.00709246
0.00841233
0.0097655
0.0111503
0.012565
0.0140078
0.015477
0.0169706
0.0184868
0.0200237
0.0215793
0.0231517
0.0247387
0.0263385
0.0279489
0.0295679
0.0311934
0.0328232
0.0344553
0.0360874
0.0377176
0.0393435
0.0409631
0.0425743
0.0441748
0.0457625
0.0473354
0.0488913
0.0504281
0.0519436
0.053436
0.054903
0.0563428
0.0577534
0.0591327
0.060479
0.0617904
0.063065
0.0643012
0.0654972
0.0666514
0.0677622
0.0688282
0.0698478
0.0708198
0.0717429
0.0726158
0.0734375
0.074207
0.0749233
0.0755857
0.0761934
0.0767458
0.0772425
0.0776831
0.0780673
0.0783951
0.0786665
0.0788816
0.0790407
0.0791443
0.079193
0.0791875
0.0791286
0.0790176
0.0788555
0.0786438
0.0783841
0.078078
0.0777276
0.0773348
0.0769021
0.0764318
0.0759266
0.0753894
0.0748232
0.0742311
0.0736167
0.0729834
0.0723351
0.0716755
0.071009
0.0703395
0.0696716
0.0690096
0.0683582
0.0677219
0.0671055
0.0665136
0.0659509
0.065422
0.0649316
0.0644839
0.0640833
0.0637345
0.0634424
0.063203
0.063009
0.00522933
0.00490801
0.00457067
0.00420136
0.00378585
0.00332873
0.00283481
0.00230773
0.00175132
0.00116962
0.000566755
-5.31064e-05
-0.000685777
-0.00132709
-0.00197291
-0.00261921
-0.003262
-0.00389746
-0.00452186
-0.00513164
-0.00572338
-0.00629382
-0.00683987
-0.00735862
-0.00784733
-0.00830342
-0.00872449
-0.00910832
-0.00945286
-0.00975619
-0.0100166
-0.0102325
-0.0104026
-0.0105254
-0.0106
-0.0106254
-0.0106007
-0.0105252
-0.0103984
-0.0102198
-0.00998909
-0.0097061
-0.00937072
-0.00898297
-0.00854297
-0.00805096
-0.00750725
-0.00691227
-0.00626652
-0.0055706
-0.00482519
-0.00403107
-0.00318907
-0.00230012
-0.00136522
-0.000385414
0.000638149
0.00170428
0.0028117
0.00395911
0.00514512
0.0063683
0.00762715
0.00892014
0.0102457
0.0116021
0.0129878
0.014401
0.0158399
0.0173028
0.0187878
0.020293
0.0218166
0.0233565
0.0249109
0.0264777
0.0280549
0.0296405
0.0312325
0.0328288
0.0344273
0.036026
0.0376227
0.0392153
0.0408018
0.0423801
0.043948
0.0455034
0.0470444
0.0485687
0.0500744
0.0515594
0.0530218
0.0544594
0.0558704
0.0572529
0.0586049
0.0599246
0.0612102
0.06246
0.0636721
0.0648451
0.0659772
0.0670669
0.0681129
0.0691136
0.0700677
0.0709741
0.0718315
0.0726389
0.0733953
0.0740997
0.0747515
0.0753499
0.0758943
0.0763843
0.0768196
0.0771998
0.0775249
0.0777949
0.0780099
0.0781703
0.0782764
0.0783289
0.0783284
0.0782759
0.0781723
0.0780188
0.0778167
0.0775676
0.0772732
0.0769352
0.0765556
0.0761367
0.0756809
0.0751905
0.0746683
0.0741173
0.0735403
0.0729407
0.0723217
0.0716869
0.07104
0.0703847
0.069725
0.0690649
0.0684085
0.06776
0.0671236
0.0665036
0.0659043
0.0653297
0.0647841
0.0642716
0.063796
0.0633609
0.0629709
0.0626305
0.0623287
0.0620525
0.00624774
0.00583843
0.00543334
0.00501062
0.0045488
0.00405217
0.00352537
0.00297148
0.00239375
0.0017957
0.00118097
0.000553279
-8.36443e-05
-0.000726048
-0.00137021
-0.00201244
-0.00264915
-0.00327681
-0.00389202
-0.00449149
-0.00507206
-0.00563071
-0.00616457
-0.00667092
-0.0071472
-0.007591
-0.00800007
-0.00837231
-0.00870579
-0.00899873
-0.00924948
-0.00945656
-0.00961863
-0.00973451
-0.00980313
-0.00982356
-0.00979503
-0.00971687
-0.00958853
-0.00940961
-0.00917979
-0.00889889
-0.00856682
-0.00818361
-0.00774937
-0.00726433
-0.00672881
-0.00614322
-0.00550804
-0.00482386
-0.00409135
-0.00331125
-0.00248438
-0.00161164
-0.000693994
0.000267523
0.00127181
0.00231769
0.00340395
0.00452929
0.00569238
0.00689181
0.00812614
0.00939385
0.0106934
0.0120232
0.0133816
0.014767
0.0161775
0.0176115
0.0190671
0.0205426
0.022036
0.0235455
0.0250691
0.026605
0.028151
0.0297054
0.031266
0.0328308
0.0343979
0.0359651
0.0375305
0.0390919
0.0406474
0.0421948
0.0437322
0.0452574
0.0467684
0.0482633
0.0497399
0.0511964
0.0526307
0.0540408
0.055425
0.0567813
0.0581078
0.0594027
0.0606643
0.0618908
0.0630806
0.064232
0.0653436
0.0664137
0.067441
0.068424
0.0693616
0.0702524
0.0710954
0.0718894
0.0726336
0.073327
0.0739689
0.0745586
0.0750955
0.0755792
0.0760093
0.0763856
0.076708
0.0769765
0.0771912
0.0773524
0.0774606
0.0775162
0.07752
0.0774727
0.0773755
0.0772293
0.0770354
0.0767954
0.0765107
0.0761832
0.0758148
0.0754075
0.0749635
0.0744853
0.0739755
0.0734366
0.0728716
0.0722834
0.0716753
0.0710505
0.0704125
0.0697646
0.0691107
0.0684543
0.0677994
0.0671496
0.0665089
0.0658811
0.0652701
0.0646796
0.0641133
0.0635748
0.0630674
0.0625943
0.0621598
0.0617682
0.0614015
0.0610409
0.0073067
0.0068084
0.00633391
0.00585562
0.00534489
0.00480584
0.00424302
0.00365895
0.00305637
0.00243834
0.00180805
0.00116877
0.00052383
-0.000123416
-0.000769614
-0.00141144
-0.00204562
-0.00266895
-0.00327831
-0.00387068
-0.00444316
-0.00499295
-0.0055174
-0.00601399
-0.00648032
-0.00691416
-0.00731339
-0.00767606
-0.00800035
-0.00828458
-0.00852721
-0.00872685
-0.00888224
-0.00899224
-0.00905586
-0.00907222
-0.00904059
-0.00896034
-0.00883096
-0.00865205
-0.00842334
-0.00814465
-0.0078159
-0.00743712
-0.00700844
-0.00653009
-0.00600236
-0.00542566
-0.00480049
-0.00412739
-0.00340703
-0.00264013
-0.00182749
-0.000969987
-6.85564e-05
0.000875788
0.00186197
0.00288886
0.00395525
0.00505989
0.00620147
0.00737862
0.00858994
0.00983396
0.0111092
0.012414
0.0137468
0.0151061
0.01649
0.0178969
0.019325
0.0207726
0.0222378
0.0237187
0.0252136
0.0267204
0.0282373
0.0297624
0.0312936
0.032829
0.0343667
0.0359045
0.0374406
0.0389729
0.0404993
0.042018
0.0435268
0.0450238
0.046507
0.0479743
0.0494239
0.0508537
0.0522619
0.0536465
0.0550057
0.0563375
0.0576403
0.0589122
0.0601515
0.0613564
0.0625255
0.063657
0.0647494
0.0658013
0.0668113
0.067778
0.0687001
0.0695766
0.0704061
0.0711878
0.0719206
0.0726037
0.0732364
0.0738179
0.0743478
0.0748256
0.0752508
0.0756234
0.0759431
0.07621
0.0764241
0.0765859
0.0766956
0.0767537
0.0767609
0.0767181
0.076626
0.0764859
0.0762989
0.0760664
0.0757899
0.075471
0.0751117
0.0747138
0.0742795
0.073811
0.0733107
0.0727813
0.0722253
0.0716456
0.0710451
0.0704269
0.0697943
0.0691503
0.0684985
0.0678421
0.0671848
0.06653
0.0658811
0.0652418
0.0646154
0.0640052
0.0634147
0.0628469
0.0623046
0.0617905
0.0613088
0.0608637
0.0604303
0.0599842
0.00839683
0.00780923
0.00726434
0.00672889
0.00616724
0.00558338
0.00498189
0.00436478
0.00373431
0.00309311
0.00244397
0.00178976
0.00113342
0.000477955
-0.000173644
-0.000818378
-0.00145329
-0.00207546
-0.00268205
-0.0032703
-0.00383754
-0.00438121
-0.00489885
-0.00538814
-0.00584686
-0.00627291
-0.00666435
-0.00701935
-0.0073362
-0.00761334
-0.00784934
-0.00804287
-0.00819276
-0.00829796
-0.00835752
-0.00837062
-0.00833658
-0.0082548
-0.00812482
-0.00794626
-0.00771888
-0.0074425
-0.00711707
-0.00674264
-0.00631932
-0.00584735
-0.00532704
-0.00475877
-0.00414303
-0.00348038
-0.00277144
-0.00201694
-0.00121766
-0.000374435
0.000511797
0.00144006
0.00240929
0.00341839
0.00446618
0.00555145
0.00667291
0.00782923
0.00901903
0.0102409
0.0114933
0.0127747
0.0140837
0.0154185
0.0167776
0.0181592
0.0195616
0.0209831
0.0224219
0.0238762
0.0253442
0.026824
0.0283137
0.0298114
0.0313152
0.0328232
0.0343334
0.0358439
0.0373527
0.0388578
0.0403573
0.0418492
0.0433315
0.0448022
0.0462594
0.0477012
0.0491257
0.0505308
0.0519147
0.0532756
0.0546116
0.0559209
0.0572016
0.0584522
0.0596708
0.0608558
0.0620056
0.0631187
0.0641935
0.0652286
0.0662226
0.0671742
0.0680821
0.0689452
0.0697624
0.0705326
0.0712549
0.0719286
0.0725527
0.0731267
0.07365
0.0741221
0.0745428
0.0749117
0.0752288
0.075494
0.0757074
0.0758693
0.0759801
0.0760401
0.0760501
0.0760107
0.0759229
0.0757877
0.0756063
0.0753799
0.0751099
0.074798
0.0744459
0.0740554
0.0736285
0.0731674
0.0726743
0.0721516
0.0716019
0.0710278
0.070432
0.0698174
0.0691869
0.0685435
0.0678904
0.0672307
0.0665676
0.0659042
0.0652438
0.0645895
0.0639443
0.0633114
0.0626935
0.0620934
0.0615135
0.0609559
0.060425
0.0599247
0.0594235
0.0588914
0.00950962
0.00883291
0.00821711
0.00762339
0.00700928
0.00637873
0.00573637
0.00508378
0.00442279
0.00375565
0.00308477
0.00241266
0.00174191
0.00107518
0.000415147
-0.000235506
-0.000874109
-0.00149803
-0.00210468
-0.00269155
-0.0032562
-0.00379628
-0.00430954
-0.00479383
-0.0052471
-0.00566743
-0.00605299
-0.0064021
-0.00671317
-0.00698475
-0.0072155
-0.00740419
-0.00754974
-0.00765114
-0.00770752
-0.00771814
-0.00768233
-0.00759957
-0.0074694
-0.00729151
-0.00706565
-0.00679169
-0.00646959
-0.00609939
-0.00568125
-0.00521538
-0.00470209
-0.00414179
-0.00353494
-0.0028821
-0.00218388
-0.00144099
-0.0006542
0.000175663
0.00104769
0.00196093
0.00291434
0.00390684
0.00493728
0.00600448
0.00710717
0.00824406
0.00941379
0.010615
0.0118461
0.0131058
0.0143925
0.0157046
0.0170405
0.0183985
0.019777
0.0211742
0.0225885
0.024018
0.025461
0.0269156
0.02838
0.0298523
0.0313307
0.0328132
0.0342979
0.035783
0.0372664
0.0387464
0.0402208
0.0416879
0.0431456
0.044592
0.0460252
0.0474434
0.0488445
0.0502268
0.0515884
0.0529273
0.0542419
0.0555304
0.0567909
0.0580217
0.0592213
0.060388
0.0615201
0.0626162
0.0636748
0.0646944
0.0656738
0.0666115
0.0675063
0.0683572
0.069163
0.0699227
0.0706354
0.0713003
0.0719165
0.0724835
0.0730008
0.0734677
0.073884
0.0742495
0.0745639
0.0748274
0.0750399
0.0752016
0.075313
0.0753744
0.0753865
0.0753498
0.0752653
0.075134
0.0749568
0.0747352
0.0744703
0.0741637
0.073817
0.073432
0.0730106
0.0725546
0.0720664
0.0715481
0.0710021
0.0704309
0.069837
0.0692231
0.0685918
0.067946
0.0672886
0.0666224
0.0659504
0.0652753
0.0646002
0.0639279
0.063261
0.0626024
0.0619545
0.0613196
0.0606999
0.0600969
0.0595152
0.0589585
0.0583888
0.0577707
0.0106373
0.00987209
0.00918524
0.00853254
0.00786483
0.0071861
0.00650107
0.00581096
0.00511721
0.00442172
0.00372657
0.00303393
0.00234609
0.00166537
0.000994169
0.000334872
-0.000310123
-0.000938441
-0.00154775
-0.00213576
-0.00270026
-0.00323909
-0.00375021
-0.00423164
-0.00468149
-0.005098
-0.00547948
-0.00582438
-0.00613122
-0.00639868
-0.00662549
-0.00681054
-0.0069528
-0.00705137
-0.00710542
-0.00711427
-0.00707732
-0.00699407
-0.00686412
-0.00668717
-0.00646303
-0.00619157
-0.00587278
-0.00550672
-0.00509355
-0.00463349
-0.00412687
-0.00357407
-0.00297557
-0.00233192
-0.00164372
-0.000911677
-0.000136536
0.00068088
0.00153969
0.00243894
0.00337763
0.00435469
0.00536901
0.00641941
0.00750466
0.0086235
0.00977459
0.0109566
0.012168
0.0134075
0.0146735
0.0159645
0.0172788
0.018615
0.0199713
0.0213461
0.0227376
0.0241441
0.0255639
0.0269952
0.0284362
0.029885
0.0313397
0.0327987
0.0342598
0.0357214
0.0371815
0.0386381
0.0400894
0.0415336
0.0429686
0.0443926
0.0458038
0.0472002
0.0485799
0.0499412
0.0512821
0.052601
0.0538959
0.0551652
0.0564071
0.05762
0.0588021
0.059952
0.0610679
0.0621485
0.0631923
0.0641978
0.0651637
0.0660887
0.0669717
0.0678114
0.0686068
0.069357
0.0700609
0.0707177
0.0713268
0.0718874
0.0723989
0.0728611
0.0732733
0.0736355
0.0739474
0.0742091
0.0744205
0.0745818
0.0746934
0.0747557
0.0747692
0.0747345
0.0746525
0.0745239
0.07435
0.0741318
0.0738706
0.0735678
0.0732249
0.0728436
0.0724257
0.0719729
0.0714874
0.0709713
0.0704266
0.0698558
0.0692613
0.0686454
0.0680106
0.0673597
0.0666952
0.0660196
0.0653358
0.0646463
0.0639537
0.0632607
0.0625695
0.0618827
0.0612024
0.0605307
0.0598692
0.0592192
0.0585854
0.0579715
0.0573331
0.0566295
0.0117729
0.01092
0.0101623
0.00945019
0.00872808
0.00800002
0.00727088
0.00654155
0.00581313
0.00508721
0.00436559
0.00365012
0.00294279
0.00224565
0.00156082
0.000890419
0.000236588
-0.000398544
-0.00101287
-0.00160434
-0.00217092
-0.00271068
-0.00322173
-0.00370227
-0.00415059
-0.00456505
-0.00494413
-0.00528638
-0.00559046
-0.00585512
-0.00607924
-0.00626176
-0.00640175
-0.00649837
-0.00655089
-0.00655865
-0.00652112
-0.00643785
-0.00630848
-0.00613276
-0.00591049
-0.00564161
-0.00532611
-0.00496407
-0.00455567
-0.00410113
-0.00360079
-0.00305505
-0.00246436
-0.00182929
-0.00115043
-0.000428468
0.000335849
0.00114171
0.00198826
0.00287455
0.0037996
0.00476237