/*--------------------------------*- C++ -*----------------------------------*\
  =========                 |
  \\      /  F ield         | OpenFOAM: The Open Source CFD Toolbox
   \\    /   O peration     | Website:  https://openfoam.org
    \\  /    A nd           | Version:  7
     \\/     M anipulation  |
\*---------------------------------------------------------------------------*/
FoamFile
{
    version     2.0;
    format      ascii;
    class       surfaceScalarField;
    location    "0.475";
    object      phi;
}
// * * * * * * * * * * * * * * * * * * * * * * * * * * * * * * * * * * * * * //

dimensions      [0 3 -1 0 0 0 0];

internalField   nonuniform List<scalar> 
50880
(
5.94959e-12
-6.27624e-12
3.61927e-11
-3.02442e-11
8.11098e-11
-4.49161e-11
1.3077e-10
-4.96539e-11
1.78037e-10
-4.72624e-11
2.17932e-10
-3.98969e-11
2.47026e-10
-2.90994e-11
2.63008e-10
-1.5984e-11
2.64352e-10
-1.34236e-12
2.50091e-10
1.42636e-11
2.19662e-10
3.0429e-11
1.72805e-10
4.68563e-11
1.09483e-10
6.33218e-11
2.98282e-11
7.96547e-11
-6.58949e-11
9.5724e-11
-1.77323e-10
1.11429e-10
-3.04015e-10
1.26692e-10
-4.45468e-10
1.41452e-10
-6.0113e-10
1.55663e-10
-7.70415e-10
1.69286e-10
-9.52709e-10
1.82294e-10
-1.14737e-09
1.94666e-10
-1.35376e-09
2.06386e-10
-1.5712e-09
2.17444e-10
-1.79903e-09
2.27831e-10
-2.03658e-09
2.37544e-10
-2.28316e-09
2.46582e-10
-2.5381e-09
2.54944e-10
-2.80074e-09
2.62634e-10
-3.07039e-09
2.69656e-10
-3.3464e-09
2.76014e-10
-3.62812e-09
2.81715e-10
-3.91488e-09
2.86768e-10
-4.20606e-09
2.91179e-10
-4.50102e-09
2.94959e-10
-4.79914e-09
2.98118e-10
-5.0998e-09
3.00664e-10
-5.40241e-09
3.02609e-10
-5.70637e-09
3.03964e-10
-6.01111e-09
3.0474e-10
-6.31606e-09
3.04949e-10
-6.62066e-09
3.04603e-10
-6.92438e-09
3.03714e-10
-7.22667e-09
3.02294e-10
-7.52702e-09
3.00356e-10
-7.82494e-09
2.97912e-10
-8.11991e-09
2.94974e-10
-8.41147e-09
2.91557e-10
-8.69914e-09
2.87672e-10
-8.98247e-09
2.83332e-10
-9.26102e-09
2.78551e-10
-9.53436e-09
2.7334e-10
-9.80207e-09
2.67715e-10
-1.00638e-08
2.61686e-10
-1.0319e-08
2.55268e-10
-1.05675e-08
2.48474e-10
-1.08088e-08
2.41317e-10
-1.10426e-08
2.33809e-10
-1.12686e-08
2.25966e-10
-1.14864e-08
2.17798e-10
-1.16957e-08
2.09321e-10
-1.18963e-08
2.00547e-10
-1.20877e-08
1.91489e-10
-1.22699e-08
1.82162e-10
-1.24425e-08
1.72579e-10
-1.26052e-08
1.62753e-10
-1.27579e-08
1.52698e-10
-1.29004e-08
1.42427e-10
-1.30323e-08
1.31955e-10
-1.31536e-08
1.21296e-10
-1.32641e-08
1.10463e-10
-1.33635e-08
9.94705e-11
-1.34519e-08
8.83329e-11
-1.35289e-08
7.70645e-11
-1.35946e-08
6.56797e-11
-1.36488e-08
5.41931e-11
-1.36914e-08
4.26194e-11
-1.37224e-08
3.09734e-11
-1.37417e-08
1.927e-11
-1.37492e-08
7.52456e-12
-1.3745e-08
-4.2478e-12
-1.37289e-08
-1.60317e-11
-1.37011e-08
-2.78116e-11
-1.36615e-08
-3.95719e-11
-1.36102e-08
-5.12967e-11
-1.35473e-08
-6.29702e-11
-1.34727e-08
-7.45762e-11
-1.33866e-08
-8.60985e-11
-1.32891e-08
-9.75206e-11
-1.31803e-08
-1.08826e-10
-1.30603e-08
-1.19999e-10
-1.29292e-08
-1.31021e-10
-1.27874e-08
-1.41877e-10
-1.26348e-08
-1.5255e-10
-1.24718e-08
-1.63023e-10
-1.22985e-08
-1.73278e-10
-1.21152e-08
-1.83298e-10
-1.19221e-08
-1.93067e-10
-1.17196e-08
-2.02567e-10
-1.15078e-08
-2.11782e-10
-1.12871e-08
-2.20694e-10
-1.10578e-08
-2.29286e-10
-1.08203e-08
-2.37541e-10
-1.05748e-08
-2.45443e-10
-1.03219e-08
-2.52974e-10
-1.00617e-08
-2.60117e-10
-9.79489e-09
-2.66857e-10
-9.52171e-09
-2.73177e-10
-9.24265e-09
-2.79061e-10
-8.95816e-09
-2.84493e-10
-8.6687e-09
-2.89456e-10
-8.37477e-09
-2.93936e-10
-8.07685e-09
-2.97918e-10
-7.77547e-09
-3.01386e-10
-7.47114e-09
-3.04327e-10
-7.16442e-09
-3.06727e-10
-6.85585e-09
-3.08571e-10
-6.546e-09
-3.09847e-10
-6.23546e-09
-3.10543e-10
-5.92482e-09
-3.10645e-10
-5.61468e-09
-3.10144e-10
-5.30565e-09
-3.09027e-10
-4.99837e-09
-3.07286e-10
-4.69346e-09
-3.0491e-10
-4.39157e-09
-3.01891e-10
-4.09335e-09
-2.9822e-10
-3.79946e-09
-2.93892e-10
-3.51056e-09
-2.88901e-10
-3.22732e-09
-2.8324e-10
-2.95041e-09
-2.76908e-10
-2.68052e-09
-2.699e-10
-2.4183e-09
-2.62217e-10
-2.16444e-09
-2.53858e-10
-1.91962e-09
-2.44826e-10
-1.6845e-09
-2.35123e-10
-1.45975e-09
-2.24757e-10
-1.24601e-09
-2.13736e-10
-1.04394e-09
-2.02072e-10
-8.54163e-10
-1.89779e-10
-6.77288e-10
-1.76876e-10
-5.139e-10
-1.63388e-10
-3.64557e-10
-1.49343e-10
-2.29779e-10
-1.34778e-10
-1.10043e-10
-1.19737e-10
-5.76871e-12
-1.04275e-10
8.26924e-11
-8.84624e-11
1.55075e-10
-7.2384e-11
2.11222e-10
-5.61485e-11
2.51114e-10
-3.98936e-11
2.74908e-10
-2.37957e-11
2.82992e-10
-8.08436e-12
2.76055e-10
6.93678e-12
2.55199e-10
2.08589e-11
2.2208e-10
3.3122e-11
1.79133e-10
4.29463e-11
1.29882e-10
4.92445e-11
7.93473e-11
5.05273e-11
3.46038e-11
4.47428e-11
5.31415e-12
2.93009e-11
5.32829e-12
3.00663e-11
-3.63415e-11
1.01217e-10
-1.01398e-10
1.95499e-10
-1.39207e-10
2.95855e-10
-1.50016e-10
3.8793e-10
-1.39333e-10
4.6048e-10
-1.1244e-10
5.05038e-10
-7.36565e-11
5.15417e-10
-2.63662e-11
4.87226e-10
2.68457e-11
4.17464e-10
8.40253e-11
3.04209e-10
1.43687e-10
1.4637e-10
2.04696e-10
-5.64861e-11
2.66178e-10
-3.04283e-10
3.27451e-10
-5.96542e-10
3.87984e-10
-9.32468e-10
4.47355e-10
-1.31101e-09
5.05235e-10
-1.73092e-09
5.61362e-10
-2.19079e-09
6.15529e-10
-2.68907e-09
6.67572e-10
-3.22414e-09
7.17364e-10
-3.79428e-09
7.64804e-10
-4.3977e-09
8.09817e-10
-5.03261e-09
8.52347e-10
-5.69713e-09
8.92353e-10
-6.38939e-09
9.29809e-10
-7.1075e-09
9.64699e-10
-7.84958e-09
9.97017e-10
-8.61371e-09
1.02677e-09
-9.398e-09
1.05395e-09
-1.02006e-08
1.07859e-09
-1.10196e-08
1.10071e-09
-1.18531e-08
1.12032e-09
-1.26994e-08
1.13747e-09
-1.35566e-08
1.15216e-09
-1.4423e-08
1.16445e-09
-1.52967e-08
1.17437e-09
-1.6176e-08
1.18196e-09
-1.70593e-08
1.18725e-09
-1.79449e-08
1.1903e-09
-1.8831e-08
1.19113e-09
-1.97162e-08
1.18981e-09
-2.05989e-08
1.18636e-09
-2.14774e-08
1.18085e-09
-2.23504e-08
1.17332e-09
-2.32163e-08
1.1638e-09
-2.40737e-08
1.15237e-09
-2.49212e-08
1.13905e-09
-2.57574e-08
1.12391e-09
-2.65811e-08
1.10698e-09
-2.73908e-08
1.08833e-09
-2.81855e-08
1.068e-09
-2.89638e-08
1.04605e-09
-2.97247e-08
1.02251e-09
-3.04668e-08
9.97452e-10
-3.11893e-08
9.70918e-10
-3.18909e-08
9.4296e-10
-3.25708e-08
9.13632e-10
-3.32278e-08
8.82983e-10
-3.3861e-08
8.51067e-10
-3.44697e-08
8.17936e-10
-3.50527e-08
7.83642e-10
-3.56095e-08
7.48237e-10
-3.61391e-08
7.11775e-10
-3.66408e-08
6.74308e-10
-3.7114e-08
6.35891e-10
-3.75579e-08
5.96576e-10
-3.79718e-08
5.56418e-10
-3.83554e-08
5.15472e-10
-3.87079e-08
4.73791e-10
-3.90288e-08
4.31432e-10
-3.93178e-08
3.88449e-10
-3.95744e-08
3.44899e-10
-3.97981e-08
3.00838e-10
-3.99888e-08
2.56323e-10
-4.0146e-08
2.11411e-10
-4.02695e-08
1.66161e-10
-4.03592e-08
1.20629e-10
-4.04148e-08
7.48762e-11
-4.04362e-08
2.89608e-11
-4.04234e-08
-1.7057e-11
-4.03764e-08
-6.31167e-11
-4.0295e-08
-1.09157e-10
-4.01795e-08
-1.55118e-10
-4.00298e-08
-2.00935e-10
-3.98462e-08
-2.46548e-10
-3.96289e-08
-2.91893e-10
-3.93781e-08
-3.36905e-10
-3.90941e-08
-3.81523e-10
-3.87773e-08
-4.2568e-10
-3.8428e-08
-4.69312e-10
-3.80466e-08
-5.12353e-10
-3.76338e-08
-5.54739e-10
-3.71899e-08
-5.96404e-10
-3.67157e-08
-6.3728e-10
-3.62116e-08
-6.77303e-10
-3.56785e-08
-7.16405e-10
-3.51171e-08
-7.54519e-10
-3.45281e-08
-7.9158e-10
-3.39123e-08
-8.27521e-10
-3.32707e-08
-8.62274e-10
-3.26043e-08
-8.95775e-10
-3.19138e-08
-9.27957e-10
-3.12005e-08
-9.58754e-10
-3.04654e-08
-9.88101e-10
-2.97096e-08
-1.01593e-09
-2.89343e-08
-1.04219e-09
-2.81406e-08
-1.0668e-09
-2.733e-08
-1.08971e-09
-2.65036e-08
-1.11085e-09
-2.56629e-08
-1.13017e-09
-2.48093e-08
-1.1476e-09
-2.39441e-08
-1.16308e-09
-2.30689e-08
-1.17657e-09
-2.21853e-08
-1.188e-09
-2.12947e-08
-1.19732e-09
-2.03988e-08
-1.20448e-09
-1.94992e-08
-1.20943e-09
-1.85976e-08
-1.21213e-09
-1.76957e-08
-1.21252e-09
-1.67953e-08
-1.21056e-09
-1.58981e-08
-1.20622e-09
-1.5006e-08
-1.19946e-09
-1.41206e-08
-1.19023e-09
-1.3244e-08
-1.17852e-09
-1.23779e-08
-1.16429e-09
-1.15243e-08
-1.14753e-09
-1.0685e-08
-1.1282e-09
-9.86198e-09
-1.10629e-09
-9.0571e-09
-1.0818e-09
-8.27229e-09
-1.05471e-09
-7.50948e-09
-1.02504e-09
-6.77056e-09
-9.92774e-10
-6.05745e-09
-9.57942e-10
-5.37201e-09
-9.20563e-10
-4.7161e-09
-8.80666e-10
-4.09155e-09
-8.38295e-10
-3.50012e-09
-7.93503e-10
-2.94354e-09
-7.4636e-10
-2.42347e-09
-6.96951e-10
-1.94148e-09
-6.4538e-10
-1.49905e-09
-5.91778e-10
-1.09753e-09
-5.36301e-10
-7.38123e-10
-4.79144e-10
-4.21859e-10
-4.20541e-10
-1.49539e-10
-3.60784e-10
7.83064e-11
-3.0023e-10
2.61482e-10
-2.39325e-10
4.00211e-10
-1.78623e-10
4.95242e-10
-1.18827e-10
5.47982e-10
-6.08265e-11
5.60677e-10
-5.76287e-12
5.36647e-10
4.48847e-11
4.80584e-10
8.91843e-11
3.98933e-10
1.24604e-10
3.00324e-10
1.4786e-10
1.96022e-10
1.54825e-10
1.00176e-10
1.4057e-10
2.92616e-11
1.00192e-10
3.45985e-11
4.48518e-11
-8.11912e-11
1.39173e-10
-1.95712e-10
2.56459e-10
-2.56497e-10
3.75083e-10
-2.68648e-10
4.76771e-10
-2.41026e-10
5.46649e-10
-1.82314e-10
5.73001e-10
-1.00004e-10
5.46867e-10
-2.31737e-13
4.61612e-10
1.12098e-10
3.12495e-10
2.33141e-10
9.63197e-11
3.59863e-10
-1.88867e-10
4.89884e-10
-5.44016e-10
6.21328e-10
-9.69272e-10
7.52707e-10
-1.46413e-09
8.82838e-10
-2.02755e-09
1.01078e-09
-2.65807e-09
1.13576e-09
-3.35391e-09
1.2572e-09
-4.11297e-09
1.37459e-09
-4.93296e-09
1.48756e-09
-5.81139e-09
1.59579e-09
-6.74563e-09
1.69904e-09
-7.73294e-09
1.79713e-09
-8.77049e-09
1.8899e-09
-9.85539e-09
1.97725e-09
-1.09847e-08
2.05911e-09
-1.21554e-08
2.13542e-09
-1.33646e-08
2.20617e-09
-1.46091e-08
2.27133e-09
-1.58861e-08
2.33092e-09
-1.71925e-08
2.38496e-09
-1.85252e-08
2.43349e-09
-1.98815e-08
2.47656e-09
-2.12582e-08
2.51421e-09
-2.26525e-08
2.54651e-09
-2.40616e-08
2.57353e-09
-2.54826e-08
2.59534e-09
-2.69126e-08
2.61203e-09
-2.83491e-08
2.62367e-09
-2.97891e-08
2.63037e-09
-3.12302e-08
2.6322e-09
-3.26697e-08
2.62928e-09
-3.4105e-08
2.62168e-09
-3.55336e-08
2.60952e-09
-3.69532e-08
2.59289e-09
-3.83613e-08
2.5719e-09
-3.97556e-08
2.54666e-09
-4.11338e-08
2.51727e-09
-4.24938e-08
2.48384e-09
-4.38333e-08
2.44647e-09
-4.51502e-08
2.40528e-09
-4.64426e-08
2.36038e-09
-4.77084e-08
2.31188e-09
-4.89458e-08
2.25989e-09
-5.01529e-08
2.20452e-09
-5.13278e-08
2.14589e-09
-5.2469e-08
2.0841e-09
-5.35746e-08
2.01929e-09
-5.46432e-08
1.95154e-09
-5.56731e-08
1.88099e-09
-5.66629e-08
1.80775e-09
-5.76112e-08
1.73194e-09
-5.85167e-08
1.65366e-09
-5.93779e-08
1.57305e-09
-6.01938e-08
1.49021e-09
-6.09632e-08
1.40526e-09
-6.1685e-08
1.31833e-09
-6.23581e-08
1.22954e-09
-6.29816e-08
1.139e-09
-6.35546e-08
1.04683e-09
-6.40764e-08
9.53164e-10
-6.4546e-08
8.5812e-10
-6.4963e-08
7.61821e-10
-6.53265e-08
6.64395e-10
-6.56362e-08
5.65966e-10
-6.58914e-08
4.66663e-10
-6.60919e-08
3.66613e-10
-6.62372e-08
2.65946e-10
-6.63271e-08
1.64793e-10
-6.63614e-08
6.32848e-11
-6.634e-08
-3.84448e-11
-6.62629e-08
-1.40262e-10
-6.613e-08
-2.42032e-10
-6.59415e-08
-3.43618e-10
-6.56976e-08
-4.44882e-10
-6.53984e-08
-5.45687e-10
-6.50444e-08
-6.45892e-10
-6.4636e-08
-7.45357e-10
-6.41736e-08
-8.4394e-10
-6.36578e-08
-9.41499e-10
-6.30892e-08
-1.03789e-09
-6.24686e-08
-1.13297e-09
-6.17967e-08
-1.22659e-09
-6.10745e-08
-1.31861e-09
-6.03029e-08
-1.40888e-09
-5.94829e-08
-1.49726e-09
-5.86157e-08
-1.5836e-09
-5.77025e-08
-1.66774e-09
-5.67446e-08
-1.74955e-09
-5.57432e-08
-1.82889e-09
-5.46999e-08
-1.90559e-09
-5.36161e-08
-1.97952e-09
-5.24936e-08
-2.05053e-09
-5.13338e-08
-2.11848e-09
-5.01387e-08
-2.18322e-09
-4.89101e-08
-2.24461e-09
-4.76497e-08
-2.30251e-09
-4.63597e-08
-2.35679e-09
-4.50421e-08
-2.4073e-09
-4.36991e-08
-2.45392e-09
-4.23328e-08
-2.4965e-09
-4.09454e-08
-2.53492e-09
-3.95395e-08
-2.56905e-09
-3.81173e-08
-2.59877e-09
-3.66813e-08
-2.62397e-09
-3.52341e-08
-2.64451e-09
-3.37783e-08
-2.6603e-09
-3.23165e-08
-2.67122e-09
-3.08515e-08
-2.67717e-09
-2.93859e-08
-2.67806e-09
-2.79227e-08
-2.6738e-09
-2.64646e-08
-2.66428e-09
-2.50146e-08
-2.64945e-09
-2.35756e-08
-2.62923e-09
-2.21506e-08
-2.60354e-09
-2.07426e-08
-2.57234e-09
-1.93545e-08
-2.53558e-09
-1.79895e-08
-2.49321e-09
-1.66506e-08
-2.44522e-09
-1.53408e-08
-2.39158e-09
-1.40632e-08
-2.33229e-09
-1.28209e-08
-2.26735e-09
-1.16169e-08
-2.1968e-09
-1.04542e-08
-2.12067e-09
-9.3357e-09
-2.03903e-09
-8.26441e-09
-1.95195e-09
-7.24317e-09
-1.85954e-09
-6.27473e-09
-1.76194e-09
-5.36178e-09
-1.65931e-09
-4.50687e-09
-1.55186e-09
-3.71241e-09
-1.43984e-09
-2.98063e-09
-1.32356e-09
-2.31354e-09
-1.20339e-09
-1.71292e-09
-1.07977e-09
-1.18021e-09
-9.53251e-10
-7.16497e-10
-8.245e-10
-3.22405e-10
-6.94324e-10
1.988e-12
-5.63719e-10
2.57275e-10
-4.33912e-10
4.44872e-10
-3.06424e-10
5.67203e-10
-1.83157e-10
6.27933e-10
-6.64934e-11
6.32248e-10
4.0565e-11
5.87198e-10
1.34228e-10
5.02077e-10
2.09724e-10
3.88814e-10
2.61133e-10
2.62314e-10
2.81337e-10
1.40611e-10
2.62274e-10
4.47161e-11
1.96071e-10
7.93133e-11
4.97105e-11
-1.30905e-10
1.50337e-10
-2.96331e-10
2.69255e-10
-3.75409e-10
3.81269e-10
-3.80665e-10
4.65574e-10
-3.25338e-10
5.05105e-10
-2.21847e-10
4.86138e-10
-8.10338e-11
3.97893e-10
8.80162e-11
2.32134e-10
2.77858e-10
-1.71939e-11
4.82467e-10
-3.54322e-10
6.9699e-10
-7.81963e-10
9.17525e-10
-1.30157e-09
1.14093e-09
-1.91355e-09
1.36469e-09
-2.61747e-09
1.58675e-09
-3.41216e-09
1.80547e-09
-4.29591e-09
2.01951e-09
-5.26649e-09
2.22778e-09
-6.3213e-09
2.42941e-09
-7.45742e-09
2.62368e-09
-8.67166e-09
2.81003e-09
-9.96061e-09
2.988e-09
-1.13207e-08
3.15723e-09
-1.27483e-08
3.31744e-09
-1.42394e-08
3.46842e-09
-1.57903e-08
3.61001e-09
-1.7397e-08
3.7421e-09
-1.90554e-08
3.86462e-09
-2.07617e-08
3.97755e-09
-2.25116e-08
4.08088e-09
-2.43013e-08
4.17463e-09
-2.61266e-08
4.25885e-09
-2.79837e-08
4.33362e-09
-2.98685e-08
4.39901e-09
-3.17771e-08
4.45511e-09
-3.37056e-08
4.50205e-09
-3.56502e-08
4.53995e-09
-3.76072e-08
4.56894e-09
-3.95726e-08
4.58915e-09
-4.1543e-08
4.60074e-09
-4.35147e-08
4.60386e-09
-4.54841e-08
4.59868e-09
-4.74477e-08
4.58536e-09
-4.94023e-08
4.56407e-09
-5.13444e-08
4.53498e-09
-5.32707e-08
4.49828e-09
-5.51782e-08
4.45414e-09
-5.70637e-08
4.40276e-09
-5.89242e-08
4.3443e-09
-6.07567e-08
4.27897e-09
-6.25583e-08
4.20695e-09
-6.43264e-08
4.12844e-09
-6.60582e-08
4.04363e-09
-6.7751e-08
3.9527e-09
-6.94023e-08
3.85587e-09
-7.10097e-08
3.75332e-09
-7.25709e-08
3.64525e-09
-7.40835e-08
3.53187e-09
-7.55453e-08
3.41337e-09
-7.69543e-08
3.28995e-09
-7.83083e-08
3.16182e-09
-7.96055e-08
3.02917e-09
-8.08441e-08
2.89222e-09
-8.20222e-08
2.75117e-09
-8.31383e-08
2.60623e-09
-8.41906e-08
2.4576e-09
-8.51777e-08
2.30549e-09
-8.60983e-08
2.15012e-09
-8.6951e-08
1.99169e-09
-8.77346e-08
1.83042e-09
-8.8448e-08
1.66652e-09
-8.90901e-08
1.50022e-09
-8.966e-08
1.33172e-09
-9.01568e-08
1.16125e-09
-9.05799e-08
9.89033e-10
-9.09285e-08
8.15287e-10
-9.12021e-08
6.4024e-10
-9.14003e-08
4.64119e-10
-9.15227e-08
2.87153e-10
-9.1569e-08
1.09574e-10
-9.1539e-08
-6.8386e-11
-9.14328e-08
-2.46491e-10
-9.12503e-08
-4.24505e-10
-9.09918e-08
-6.02189e-10
-9.06573e-08
-7.793e-10
-9.02474e-08
-9.55598e-10
-8.97625e-08
-1.13084e-09
-8.92031e-08
-1.30477e-09
-8.85699e-08
-1.47715e-09
-8.78636e-08
-1.64773e-09
-8.70853e-08
-1.81626e-09
-8.62358e-08
-1.98248e-09
-8.53162e-08
-2.14614e-09
-8.43278e-08
-2.30698e-09
-8.3272e-08
-2.46476e-09
-8.215e-08
-2.61922e-09
-8.09635e-08
-2.7701e-09
-7.97141e-08
-2.91714e-09
-7.84036e-08
-3.06009e-09
-7.70338e-08
-3.19869e-09
-7.56067e-08
-3.33269e-09
-7.41243e-08
-3.46184e-09
-7.2589e-08
-3.58587e-09
-7.10029e-08
-3.70455e-09
-6.93685e-08
-3.81761e-09
-6.76883e-08
-3.92482e-09
-6.59649e-08
-4.02594e-09
-6.4201e-08
-4.12071e-09
-6.23994e-08
-4.2089e-09
-6.0563e-08
-4.29028e-09
-5.86949e-08
-4.36462e-09
-5.67981e-08
-4.4317e-09
-5.48759e-08
-4.4913e-09
-5.29315e-08
-4.5432e-09
-5.09682e-08
-4.58719e-09
-4.89897e-08
-4.62309e-09
-4.69993e-08
-4.65069e-09
-4.50007e-08
-4.66982e-09
-4.29976e-08
-4.68029e-09
-4.09937e-08
-4.68195e-09
-3.89928e-08
-4.67463e-09
-3.69989e-08
-4.6582e-09
-3.50159e-08
-4.63252e-09
-3.30476e-08
-4.59747e-09
-3.10982e-08
-4.55294e-09
-2.91717e-08
-4.49884e-09
-2.72722e-08
-4.4351e-09
-2.54038e-08
-4.36166e-09
-2.35705e-08
-4.27848e-09
-2.17766e-08
-4.18553e-09
-2.0026e-08
-4.08283e-09
-1.8323e-08
-3.9704e-09
-1.66715e-08
-3.84829e-09
-1.50756e-08
-3.7166e-09
-1.35392e-08
-3.57544e-09
-1.20662e-08
-3.42497e-09
-1.06603e-08
-3.26541e-09
-9.32524e-09
-3.09699e-09
-8.0645e-09
-2.92005e-09
-6.8814e-09
-2.73497e-09
-5.77905e-09
-2.5422e-09
-4.76031e-09
-2.34231e-09
-3.82772e-09
-2.13597e-09
-2.98349e-09
-1.924e-09
-2.22937e-09
-1.70737e-09
-1.5666e-09
-1.48727e-09
-9.95825e-10
-1.2651e-09
-5.16931e-10
-1.04261e-09
-1.28937e-10
-8.21907e-10
1.70193e-10
-6.05556e-10
3.83762e-10
-3.96726e-10
5.16579e-10
-1.9931e-10
5.75251e-10
-1.81071e-11
5.68497e-10
1.40976e-10
5.07501e-10
2.70711e-10
4.06261e-10
3.6237e-10
2.81928e-10
4.05677e-10
1.55135e-10
3.89077e-10
5.05768e-11
3.00626e-10
1.29884e-10
4.75071e-11
-1.78419e-10
1.40272e-10
-3.89095e-10
2.42817e-10
-4.77947e-10
3.27749e-10
-4.65592e-10
3.72694e-10
-3.70286e-10
3.59293e-10
-2.08452e-10
2.72633e-10
5.62492e-12
1.00807e-10
2.59845e-10
-1.65458e-10
5.44125e-10
-5.33134e-10
8.50144e-10
-1.00721e-09
1.17107e-09
-1.591e-09
1.50131e-09
-2.28636e-09
1.83629e-09
-3.09395e-09
2.17228e-09
-4.01342e-09
2.50622e-09
-5.04354e-09
2.8356e-09
-6.1824e-09
3.15837e-09
-7.42746e-09
3.47284e-09
-8.77571e-09
3.77765e-09
-1.02237e-08
4.07168e-09
-1.17677e-08
4.35399e-09
-1.34035e-08
4.62388e-09
-1.5127e-08
4.88073e-09
-1.69337e-08
5.12408e-09
-1.88188e-08
5.35358e-09
-2.07778e-08
5.56895e-09
-2.28057e-08
5.77e-09
-2.48976e-08
5.95659e-09
-2.70488e-08
6.12865e-09
-2.9254e-08
6.28616e-09
-3.15085e-08
6.42913e-09
-3.38073e-08
6.55761e-09
-3.61454e-08
6.67169e-09
-3.85178e-08
6.77147e-09
-4.09198e-08
6.85711e-09
-4.33465e-08
6.92874e-09
-4.57931e-08
6.98656e-09
-4.82549e-08
7.03074e-09
-5.07273e-08
7.06151e-09
-5.32056e-08
7.07907e-09
-5.56854e-08
7.08366e-09
-5.81622e-08
7.07551e-09
-6.06318e-08
7.05488e-09
-6.30897e-08
7.02202e-09
-6.55319e-08
6.9772e-09
-6.79543e-08
6.92068e-09
-7.03529e-08
6.85274e-09
-7.27238e-08
6.77365e-09
-7.50632e-08
6.68371e-09
-7.73674e-08
6.58319e-09
-7.96329e-08
6.47238e-09
-8.1856e-08
6.35159e-09
-8.40335e-08
6.22109e-09
-8.6162e-08
6.0812e-09
-8.82383e-08
5.9322e-09
-9.02594e-08
5.77441e-09
-9.22223e-08
5.60813e-09
-9.41241e-08
5.43366e-09
-9.5962e-08
5.25131e-09
-9.77335e-08
5.06139e-09
-9.94358e-08
4.8642e-09
-1.01067e-07
4.66008e-09
-1.02624e-07
4.44932e-09
-1.04105e-07
4.23225e-09
-1.05508e-07
4.00918e-09
-1.06831e-07
3.78043e-09
-1.08072e-07
3.54633e-09
-1.09229e-07
3.30721e-09
-1.103e-07
3.06338e-09
-1.11285e-07
2.81518e-09
-1.12181e-07
2.56294e-09
-1.12988e-07
2.307e-09
-1.13704e-07
2.04768e-09
-1.14328e-07
1.78534e-09
-1.1486e-07
1.52031e-09
-1.15297e-07
1.25293e-09
-1.15641e-07
9.83562e-10
-1.15889e-07
7.12547e-10
-1.16042e-07
4.40241e-10
-1.16099e-07
1.67e-10
-1.16061e-07
-1.06816e-10
-1.15927e-07
-3.80844e-10
-1.15696e-07
-6.5472e-10
-1.15371e-07
-9.28074e-10
-1.14949e-07
-1.20054e-09
-1.14433e-07
-1.47173e-09
-1.13823e-07
-1.74129e-09
-1.13119e-07
-2.00882e-09
-1.12322e-07
-2.27395e-09
-1.11433e-07
-2.53629e-09
-1.10454e-07
-2.79546e-09
-1.09386e-07
-3.05106e-09
-1.08229e-07
-3.30272e-09
-1.06986e-07
-3.55004e-09
-1.05658e-07
-3.79262e-09
-1.04247e-07
-4.03008e-09
-1.02755e-07
-4.26202e-09
-1.01184e-07
-4.48805e-09
-9.95367e-08
-4.70778e-09
-9.78146e-08
-4.92081e-09
-9.60206e-08
-5.12675e-09
-9.41572e-08
-5.32522e-09
-9.22272e-08
-5.51583e-09
-9.02336e-08
-5.69819e-09
-8.81793e-08
-5.87192e-09
-8.60675e-08
-6.03665e-09
-8.39014e-08
-6.192e-09
-8.16845e-08
-6.3376e-09
-7.94203e-08
-6.4731e-09
-7.71125e-08
-6.59814e-09
-7.47647e-08
-6.71236e-09
-7.2381e-08
-6.81544e-09
-6.99653e-08
-6.90702e-09
-6.75217e-08
-6.9868e-09
-6.50544e-08
-7.05446e-09
-6.25678e-08
-7.1097e-09
-6.00663e-08
-7.15223e-09
-5.75543e-08
-7.18176e-09
-5.50366e-08
-7.19805e-09
-5.25177e-08
-7.20083e-09
-5.00024e-08
-7.18989e-09
-4.74956e-08
-7.165e-09
-4.50022e-08
-7.12597e-09
-4.2527e-08
-7.07262e-09
-4.00752e-08
-7.0048e-09
-3.76516e-08
-6.92238e-09
-3.52615e-08
-6.82525e-09
-3.29098e-08
-6.71334e-09
-3.06017e-08
-6.5866e-09
-2.83422e-08
-6.44501e-09
-2.61365e-08
-6.28859e-09
-2.39895e-08
-6.11741e-09
-2.19062e-08
-5.93157e-09
-1.98916e-08
-5.73121e-09
-1.79505e-08
-5.51656e-09
-1.60876e-08
-5.28788e-09
-1.43075e-08
-5.04551e-09
-1.26146e-08
-4.78987e-09
-1.10132e-08
-4.52148e-09
-9.50719e-09
-4.24095e-09
-8.10036e-09
-3.94902e-09
-6.79608e-09
-3.6466e-09
-5.59732e-09
-3.33473e-09
-4.50661e-09
-3.01471e-09
-3.52594e-09
-2.68804e-09
-2.65667e-09
-2.35654e-09
-1.89938e-09
-2.02239e-09
-1.2538e-09
-1.6882e-09
-7.18588e-10
-1.35712e-09
-2.91199e-10
-1.03295e-09
3.23524e-11
-7.20279e-10
2.57727e-10
-4.24684e-10
3.92528e-10
-1.52905e-10
4.46589e-10
8.6915e-11
4.32289e-10
2.85006e-10
3.6489e-10
4.29761e-10
2.62933e-10
5.07631e-10
1.48754e-10
5.03264e-10
4.94568e-11
3.99928e-10
1.79338e-10
4.04124e-11
-2.18834e-10
1.14266e-10
-4.62955e-10
1.85814e-10
-5.49494e-10
2.26889e-10
-5.06662e-10
2.14443e-10
-3.57838e-10
1.2951e-10
-1.2352e-10
-4.34187e-11
1.7855e-10
-3.16847e-10
5.33273e-10
-7.00641e-10
9.2792e-10
-1.20233e-09
1.35184e-09
-1.8274e-09
1.79614e-09
-2.57956e-09
2.25347e-09
-3.46097e-09
2.71771e-09
-4.47248e-09
3.18379e-09
-5.61377e-09
3.64752e-09
-6.8836e-09
4.10543e-09
-8.27988e-09
4.55464e-09
-9.79982e-09
4.99279e-09
-1.14401e-08
5.41789e-09
-1.31967e-08
5.82834e-09
-1.50655e-08
6.22281e-09
-1.70419e-08
6.60021e-09
-1.91208e-08
6.95966e-09
-2.12972e-08
7.30047e-09
-2.35657e-08
7.62209e-09
-2.59208e-08
7.92409e-09
-2.8357e-08
8.20615e-09
-3.08684e-08
8.46806e-09
-3.34495e-08
8.70968e-09
-3.60942e-08
8.93095e-09
-3.8797e-08
9.13185e-09
-4.15518e-08
9.31243e-09
-4.43529e-08
9.4728e-09
-4.71945e-08
9.61309e-09
-5.00709e-08
9.73347e-09
-5.29763e-08
9.83414e-09
-5.5905e-08
9.91534e-09
-5.88516e-08
9.97733e-09
-6.18105e-08
1.00204e-08
-6.47762e-08
1.00448e-08
-6.77435e-08
1.00509e-08
-7.07069e-08
1.0039e-08
-7.36615e-08
1.00094e-08
-7.6602e-08
9.96258e-09
-7.95236e-08
9.8988e-09
-8.24214e-08
9.81846e-09
-8.52906e-08
9.72194e-09
-8.81266e-08
9.60964e-09
-9.09248e-08
9.48196e-09
-9.36809e-08
9.33928e-09
-9.63906e-08
9.18203e-09
-9.90496e-08
9.0106e-09
-1.01654e-07
8.82543e-09
-1.042e-07
8.62692e-09
-1.06683e-07
8.4155e-09
-1.091e-07
8.1916e-09
-1.11448e-07
7.95564e-09
-1.13722e-07
7.70807e-09
-1.1592e-07
7.44931e-09
-1.18038e-07
7.17981e-09
-1.20074e-07
6.90001e-09
-1.22025e-07
6.61034e-09
-1.23886e-07
6.31126e-09
-1.25657e-07
6.00322e-09
-1.27335e-07
5.68667e-09
-1.28917e-07
5.36207e-09
-1.304e-07
5.02987e-09
-1.31783e-07
4.69053e-09
-1.33065e-07
4.34453e-09
-1.34242e-07
3.99232e-09
-1.35313e-07
3.63439e-09
-1.36277e-07
3.2712e-09
-1.37133e-07
2.90324e-09
-1.37879e-07
2.53098e-09
-1.38513e-07
2.15492e-09
-1.39036e-07
1.77554e-09
-1.39446e-07
1.39334e-09
-1.39742e-07
1.00882e-09
-1.39924e-07
6.2248e-10
-1.39992e-07
2.34826e-10
-1.39945e-07
-1.5363e-10
-1.39784e-07
-5.42373e-10
-1.39507e-07
-9.30884e-10
-1.39117e-07
-1.31864e-09
-1.38612e-07
-1.70511e-09
-1.37994e-07
-2.08977e-09
-1.37263e-07
-2.47209e-09
-1.36421e-07
-2.85151e-09
-1.35467e-07
-3.22751e-09
-1.34404e-07
-3.59954e-09
-1.33232e-07
-3.96705e-09
-1.31954e-07
-4.32949e-09
-1.3057e-07
-4.68631e-09
-1.29083e-07
-5.03696e-09
-1.27495e-07
-5.38088e-09
-1.25808e-07
-5.71752e-09
-1.24023e-07
-6.04631e-09
-1.22145e-07
-6.36671e-09
-1.20174e-07
-6.67816e-09
-1.18115e-07
-6.98011e-09
-1.1597e-07
-7.27199e-09
-1.13742e-07
-7.55327e-09
-1.11434e-07
-7.8234e-09
-1.09051e-07
-8.08183e-09
-1.06594e-07
-8.32803e-09
-1.0407e-07
-8.56147e-09
-1.0148e-07
-8.78162e-09
-9.88297e-08
-8.98796e-09
-9.61228e-08
-9.17998e-09
-9.33637e-08
-9.35719e-09
-9.0557e-08
-9.5191e-09
-8.77072e-08
-9.66522e-09
-8.48192e-08
-9.79509e-09
-8.18977e-08
-9.90826e-09
-7.89479e-08
-1.00043e-08
-7.59748e-08
-1.00828e-08
-7.29838e-08
-1.01433e-08
-6.99801e-08
-1.01854e-08
-6.69693e-08
-1.02089e-08
-6.39569e-08
-1.02133e-08
-6.09485e-08
-1.01983e-08
-5.79499e-08
-1.01636e-08
-5.49668e-08
-1.0109e-08
-5.20051e-08
-1.00343e-08
-4.90708e-08
-9.93916e-09
-4.61697e-08
-9.82348e-09
-4.33078e-08
-9.68712e-09
-4.04911e-08
-9.52999e-09
-3.77257e-08
-9.35203e-09
-3.50175e-08
-9.15325e-09
-3.23724e-08
-8.93369e-09
-2.97963e-08
-8.69346e-09
-2.72952e-08
-8.43274e-09
-2.48746e-08
-8.15176e-09
-2.25403e-08
-7.85085e-09
-2.02978e-08
-7.53042e-09
-1.81523e-08
-7.19098e-09
-1.6109e-08
-6.83317e-09
-1.41728e-08
-6.45773e-09
-1.23482e-08
-6.06559e-09
-1.06393e-08
-5.65782e-09
-9.05021e-09
-5.23573e-09
-7.5841e-09
-4.80085e-09
-6.24381e-09
-4.355e-09
-5.03152e-09
-3.90033e-09
-3.94867e-09
-3.4394e-09
-2.99581e-09
-2.97525e-09
-2.17252e-09
-2.51149e-09
-1.4772e-09
-2.05243e-09
-9.06939e-10
-1.60321e-09
-4.57257e-10
-1.16996e-09
-1.2193e-10
-7.60013e-10
1.07279e-10
-3.82115e-10
2.40879e-10
-4.66817e-11
2.91928e-10
2.33957e-10
2.76376e-10
4.45307e-10
2.1349e-10
5.7051e-10
1.26459e-10
5.90294e-10
4.34256e-11
4.82965e-10
2.22763e-10
2.99624e-11
-2.48793e-10
7.66066e-11
-5.09605e-10
1.05651e-10
-5.78543e-10
8.93637e-11
-4.90375e-10
4.82885e-12
-2.73299e-10
-1.66931e-10
4.82416e-11
-4.41531e-10
4.53148e-10
-8.31655e-10
9.23396e-10
-1.3474e-09
1.44366e-09
-1.99654e-09
2.00098e-09
-2.78482e-09
2.58442e-09
-3.71615e-09
3.1848e-09
-4.79286e-09
3.79441e-09
-6.01587e-09
4.4068e-09
-7.38491e-09
5.01656e-09
-8.89864e-09
5.61916e-09
-1.05548e-08
6.21084e-09
-1.23505e-08
6.78843e-09
-1.42819e-08
7.3493e-09
-1.63448e-08
7.89128e-09
-1.85346e-08
8.41256e-09
-2.0846e-08
8.91164e-09
-2.32737e-08
9.38732e-09
-2.58118e-08
9.8386e-09
-2.84544e-08
1.02647e-08
-3.11954e-08
1.0665e-08
-3.40283e-08
1.10391e-08
-3.69469e-08
1.13866e-08
-3.99445e-08
1.17073e-08
-4.30146e-08
1.20011e-08
-4.61506e-08
1.22679e-08
-4.93459e-08
1.25077e-08
-5.25938e-08
1.27207e-08
-5.58878e-08
1.2907e-08
-5.92212e-08
1.30669e-08
-6.25876e-08
1.32005e-08
-6.59804e-08
1.33082e-08
-6.93934e-08
1.33903e-08
-7.28201e-08
1.34471e-08
-7.62543e-08
1.3479e-08
-7.96899e-08
1.34865e-08
-8.31208e-08
1.34699e-08
-8.65412e-08
1.34298e-08
-8.99451e-08
1.33665e-08
-9.33269e-08
1.32806e-08
-9.66809e-08
1.31725e-08
-1.00002e-07
1.30427e-08
-1.03284e-07
1.28919e-08
-1.06522e-07
1.27204e-08
-1.09712e-07
1.25288e-08
-1.12847e-07
1.23177e-08
-1.15924e-07
1.20876e-08
-1.18938e-07
1.18391e-08
-1.21884e-07
1.15726e-08
-1.24757e-07
1.12889e-08
-1.27554e-07
1.09885e-08
-1.3027e-07
1.06718e-08
-1.32902e-07
1.03396e-08
-1.35445e-07
9.99238e-09
-1.37896e-07
9.63074e-09
-1.40251e-07
9.25528e-09
-1.42507e-07
8.86658e-09
-1.44661e-07
8.46526e-09
-1.4671e-07
8.05191e-09
-1.4865e-07
7.62715e-09
-1.5048e-07
7.19158e-09
-1.52196e-07
6.74582e-09
-1.53796e-07
6.29049e-09
-1.55278e-07
5.82622e-09
-1.56639e-07
5.35363e-09
-1.57878e-07
4.87336e-09
-1.58993e-07
4.38605e-09
-1.59982e-07
3.89234e-09
-1.60844e-07
3.39289e-09
-1.61577e-07
2.88833e-09
-1.62181e-07
2.37934e-09
-1.62654e-07
1.86658e-09
-1.62996e-07
1.35072e-09
-1.63206e-07
8.32433e-10
-1.63284e-07
3.12401e-10
-1.63229e-07
-2.0869e-10
-1.63041e-07
-7.30147e-10
-1.6272e-07
-1.25127e-09
-1.62268e-07
-1.77137e-09
-1.61683e-07
-2.28972e-09
-1.60967e-07
-2.80562e-09
-1.60121e-07
-3.31835e-09
-1.59145e-07
-3.82719e-09
-1.58041e-07
-4.33141e-09
-1.56811e-07
-4.83029e-09
-1.55455e-07
-5.32308e-09
-1.53975e-07
-5.80905e-09
-1.52374e-07
-6.28747e-09
-1.50653e-07
-6.75759e-09
-1.48815e-07
-7.21867e-09
-1.46863e-07
-7.66996e-09
-1.44799e-07
-8.11073e-09
-1.42625e-07
-8.54022e-09
-1.40346e-07
-8.9577e-09
-1.37963e-07
-9.36243e-09
-1.35482e-07
-9.75366e-09
-1.32904e-07
-1.01307e-08
-1.30235e-07
-1.04927e-08
-1.27478e-07
-1.08391e-08
-1.24637e-07
-1.11691e-08
-1.21716e-07
-1.1482e-08
-1.18721e-07
-1.1777e-08
-1.15655e-07
-1.20536e-08
-1.12524e-07
-1.2311e-08
-1.09333e-07
-1.25486e-08
-1.06086e-07
-1.27657e-08
-1.02789e-07
-1.29617e-08
-9.94486e-08
-1.31359e-08
-9.60691e-08
-1.32878e-08
-9.26565e-08
-1.34168e-08
-8.9217e-08
-1.35223e-08
-8.57564e-08
-1.36039e-08
-8.22809e-08
-1.36609e-08
-7.87968e-08
-1.36929e-08
-7.53105e-08
-1.36995e-08
-7.18285e-08
-1.36803e-08
-6.83573e-08
-1.36348e-08
-6.49036e-08
-1.35628e-08
-6.14739e-08
-1.34639e-08
-5.80752e-08
-1.33379e-08
-5.47142e-08
-1.31845e-08
-5.13977e-08
-1.30036e-08
-4.81326e-08
-1.27951e-08
-4.49256e-08
-1.2559e-08
-4.17836e-08
-1.22953e-08
-3.87133e-08
-1.2004e-08
-3.57215e-08
-1.16853e-08
-3.28147e-08
-1.13395e-08
-2.99994e-08
-1.0967e-08
-2.72821e-08
-1.05682e-08
-2.46688e-08
-1.01437e-08
-2.21656e-08
-9.69422e-09
-1.97781e-08
-9.22063e-09
-1.75118e-08
-8.72399e-09
-1.53719e-08
-8.20557e-09
-1.33629e-08
-7.66683e-09
-1.1489e-08
-7.10956e-09
-9.75408e-09
-6.53581e-09
-8.16105e-09
-5.94804e-09
-6.71227e-09
-5.34911e-09
-5.40926e-09
-4.7424e-09
-4.25261e-09
-4.13191e-09
-3.24178e-09
-3.52232e-09
-2.37504e-09
-2.91918e-09
-1.64921e-09
-2.32903e-09
-1.05957e-09
-1.75961e-09
-5.99549e-10
-1.22003e-09
-2.60595e-10
-7.21072e-10
-3.18845e-11
-2.75392e-10
9.99169e-11
1.02158e-10
1.50977e-10
3.94248e-10
1.40715e-10
5.80767e-10
9.23912e-11
6.38614e-10
3.39842e-11
5.41371e-10
2.56749e-10
1.72514e-11
-2.6604e-10
3.06117e-11
-5.22965e-10
8.32211e-12
-5.56257e-10
-7.59999e-11
-4.06056e-10
-2.44459e-10
-1.04839e-10
-5.15524e-10
3.19309e-10
-9.04498e-10
8.42124e-10
-1.42389e-09
1.44279e-09
-2.08372e-09
2.10349e-09
-2.89176e-09
2.80902e-09
-3.85376e-09
3.54642e-09
-4.97368e-09
4.30472e-09
-6.25387e-09
5.0746e-09
-7.69524e-09
5.84817e-09
-9.29746e-09
6.61878e-09
-1.10591e-08
7.3808e-09
-1.29777e-08
8.12948e-09
-1.50501e-08
8.86084e-09
-1.72724e-08
9.57153e-09
-1.96398e-08
1.02587e-08
-2.21474e-08
1.09201e-08
-2.47895e-08
1.15538e-08
-2.75602e-08
1.2158e-08
-3.04532e-08
1.27316e-08
-3.34619e-08
1.32734e-08
-3.65796e-08
1.37827e-08
-3.97993e-08
1.42588e-08
-4.3114e-08
1.47013e-08
-4.65163e-08
1.51097e-08
-4.99991e-08
1.54839e-08
-5.3555e-08
1.58238e-08
-5.71767e-08
1.61294e-08
-6.08567e-08
1.64007e-08
-6.45878e-08
1.66381e-08
-6.83625e-08
1.68417e-08
-7.21737e-08
1.70117e-08
-7.60141e-08
1.71486e-08
-7.98766e-08
1.72527e-08
-8.3754e-08
1.73245e-08
-8.76394e-08
1.73644e-08
-9.15258e-08
1.7373e-08
-9.54066e-08
1.73507e-08
-9.92751e-08
1.72982e-08
-1.03125e-07
1.7216e-08
-1.06949e-07
1.71048e-08
-1.10741e-07
1.6965e-08
-1.14496e-07
1.67975e-08
-1.18207e-07
1.66028e-08
-1.21868e-07
1.63816e-08
-1.25474e-07