/*--------------------------------*- C++ -*----------------------------------*\
  =========                 |
  \\      /  F ield         | OpenFOAM: The Open Source CFD Toolbox
   \\    /   O peration     | Website:  https://openfoam.org
    \\  /    A nd           | Version:  7
     \\/     M anipulation  |
\*---------------------------------------------------------------------------*/
FoamFile
{
    version     2.0;
    format      ascii;
    class       volVectorField;
    location    "0.475";
    object      U;
}
// * * * * * * * * * * * * * * * * * * * * * * * * * * * * * * * * * * * * * //

dimensions      [0 1 -1 0 0 0 0];

internalField   nonuniform List<vector> 
25600
(
(1.78052e-07 -2.06094e-07 0)
(2.8364e-06 -1.79491e-06 0)
(9.0755e-06 -2.83353e-06 0)
(1.69296e-05 -3.20728e-06 0)
(2.48914e-05 -3.1242e-06 0)
(3.20113e-05 -2.7469e-06 0)
(3.7636e-05 -2.18241e-06 0)
(4.13158e-05 -1.5019e-06 0)
(4.27517e-05 -7.51966e-07 0)
(4.17503e-05 3.69258e-08 0)
(3.81937e-05 8.44379e-07 0)
(3.20193e-05 1.6563e-06 0)
(2.32055e-05 2.46266e-06 0)
(1.1762e-05 3.25614e-06 0)
(-2.27838e-06 4.03138e-06 0)
(-1.88644e-05 4.7844e-06 0)
(-3.79308e-05 5.51227e-06 0)
(-5.94015e-05 6.2128e-06 0)
(-8.31916e-05 6.88433e-06 0)
(-0.00010921 7.52566e-06 0)
(-0.000137359 8.1359e-06 0)
(-0.00016754 8.71447e-06 0)
(-0.000199649 9.26099e-06 0)
(-0.000233581 9.77525e-06 0)
(-0.000269229 1.02572e-05 0)
(-0.000306484 1.07068e-05 0)
(-0.00034524 1.11243e-05 0)
(-0.000385388 1.15099e-05 0)
(-0.00042682 1.18638e-05 0)
(-0.000469429 1.21864e-05 0)
(-0.000513108 1.2478e-05 0)
(-0.000557752 1.27391e-05 0)
(-0.000603255 1.29702e-05 0)
(-0.000649516 1.31716e-05 0)
(-0.000696431 1.33439e-05 0)
(-0.000743901 1.34876e-05 0)
(-0.000791827 1.36033e-05 0)
(-0.000840112 1.36914e-05 0)
(-0.000888661 1.37526e-05 0)
(-0.000937379 1.37874e-05 0)
(-0.000986176 1.37963e-05 0)
(-0.00103496 1.378e-05 0)
(-0.00108365 1.37391e-05 0)
(-0.00113215 1.36741e-05 0)
(-0.00118038 1.35856e-05 0)
(-0.00122826 1.34742e-05 0)
(-0.00127571 1.33405e-05 0)
(-0.00132265 1.31851e-05 0)
(-0.00136901 1.30087e-05 0)
(-0.00141471 1.28117e-05 0)
(-0.00145968 1.25948e-05 0)
(-0.00150384 1.23586e-05 0)
(-0.00154714 1.21037e-05 0)
(-0.00158951 1.18307e-05 0)
(-0.00163088 1.15401e-05 0)
(-0.0016712 1.12326e-05 0)
(-0.00171039 1.09088e-05 0)
(-0.00174842 1.05693e-05 0)
(-0.00178521 1.02147e-05 0)
(-0.00182073 9.84549e-06 0)
(-0.00185491 9.46238e-06 0)
(-0.00188771 9.06594e-06 0)
(-0.00191908 8.65677e-06 0)
(-0.00194898 8.23547e-06 0)
(-0.00197737 7.80265e-06 0)
(-0.00200421 7.35891e-06 0)
(-0.00202945 6.90487e-06 0)
(-0.00205307 6.44114e-06 0)
(-0.00207503 5.96833e-06 0)
(-0.0020953 5.48708e-06 0)
(-0.00211384 4.998e-06 0)
(-0.00213064 4.50172e-06 0)
(-0.00214567 3.99889e-06 0)
(-0.00215891 3.49013e-06 0)
(-0.00217033 2.97609e-06 0)
(-0.00217993 2.45743e-06 0)
(-0.00218768 1.93479e-06 0)
(-0.00219357 1.40886e-06 0)
(-0.00219759 8.8028e-07 0)
(-0.00219973 3.49745e-07 0)
(-0.0022 -1.82066e-07 0)
(-0.00219837 -7.14465e-07 0)
(-0.00219487 -1.24676e-06 0)
(-0.00218947 -1.77824e-06 0)
(-0.0021822 -2.30822e-06 0)
(-0.00217306 -2.83595e-06 0)
(-0.00216205 -3.36074e-06 0)
(-0.00214919 -3.88183e-06 0)
(-0.0021345 -4.3985e-06 0)
(-0.00211799 -4.91001e-06 0)
(-0.00209968 -5.4156e-06 0)
(-0.00207959 -5.91453e-06 0)
(-0.00205775 -6.40603e-06 0)
(-0.00203419 -6.88935e-06 0)
(-0.00200893 -7.36372e-06 0)
(-0.00198202 -7.82837e-06 0)
(-0.00195349 -8.28251e-06 0)
(-0.00192337 -8.72538e-06 0)
(-0.0018917 -9.15621e-06 0)
(-0.00185855 -9.5742e-06 0)
(-0.00182393 -9.97858e-06 0)
(-0.00178792 -1.03686e-05 0)
(-0.00175056 -1.07434e-05 0)
(-0.00171191 -1.11023e-05 0)
(-0.00167202 -1.14445e-05 0)
(-0.00163096 -1.17692e-05 0)
(-0.00158879 -1.20757e-05 0)
(-0.00154557 -1.23633e-05 0)
(-0.00150137 -1.26311e-05 0)
(-0.00145627 -1.28784e-05 0)
(-0.00141033 -1.31045e-05 0)
(-0.00136364 -1.33087e-05 0)
(-0.00131628 -1.34903e-05 0)
(-0.00126831 -1.36486e-05 0)
(-0.00121983 -1.3783e-05 0)
(-0.00117093 -1.38926e-05 0)
(-0.00112168 -1.39771e-05 0)
(-0.00107219 -1.40356e-05 0)
(-0.00102253 -1.40676e-05 0)
(-0.000972814 -1.40726e-05 0)
(-0.000923128 -1.40499e-05 0)
(-0.00087357 -1.39991e-05 0)
(-0.000824241 -1.39196e-05 0)
(-0.000775241 -1.38109e-05 0)
(-0.000726672 -1.36727e-05 0)
(-0.000678638 -1.35045e-05 0)
(-0.000631243 -1.33059e-05 0)
(-0.000584594 -1.30766e-05 0)
(-0.000538797 -1.28163e-05 0)
(-0.000493959 -1.25247e-05 0)
(-0.000450189 -1.22017e-05 0)
(-0.000407593 -1.1847e-05 0)
(-0.000366281 -1.14607e-05 0)
(-0.000326361 -1.10425e-05 0)
(-0.00028794 -1.05926e-05 0)
(-0.000251125 -1.01111e-05 0)
(-0.000216021 -9.59814e-06 0)
(-0.000182733 -9.05409e-06 0)
(-0.000151361 -8.47938e-06 0)
(-0.000122007 -7.87461e-06 0)
(-9.47641e-05 -7.24057e-06 0)
(-6.97256e-05 -6.57825e-06 0)
(-4.69778e-05 -5.88893e-06 0)
(-2.66005e-05 -5.17423e-06 0)
(-8.66619e-06 -4.43621e-06 0)
(6.76295e-06 -3.6775e-06 0)
(1.96368e-05 -2.90149e-06 0)
(2.99205e-05 -2.11261e-06 0)
(3.75987e-05 -1.3166e-06 0)
(4.26806e-05 -5.21199e-07 0)
(4.52076e-05 2.63148e-07 0)
(4.52627e-05 1.02184e-06 0)
(4.29849e-05 1.73399e-06 0)
(3.85888e-05 2.36884e-06 0)
(3.23945e-05 2.88e-06 0)
(2.48698e-05 3.19729e-06 0)
(1.66806e-05 3.21622e-06 0)
(8.77928e-06 2.78055e-06 0)
(2.64204e-06 1.6975e-06 0)
(1.21503e-07 1.22531e-07 0)
(1.77691e-06 -2.87781e-06 0)
(9.38283e-06 -9.41498e-06 0)
(2.31422e-05 -1.3421e-05 0)
(3.93865e-05 -1.47325e-05 0)
(5.52742e-05 -1.39695e-05 0)
(6.88121e-05 -1.1703e-05 0)
(7.84597e-05 -8.37334e-06 0)
(8.30589e-05 -4.30939e-06 0)
(8.1778e-05 2.47953e-07 0)
(7.40388e-05 5.12358e-06 0)
(5.94576e-05 1.01887e-05 0)
(3.78014e-05 1.53477e-05 0)
(8.95452e-06 2.05282e-05 0)
(-2.7107e-05 2.56748e-05 0)
(-7.0335e-05 3.0745e-05 0)
(-0.000120625 3.57056e-05 0)
(-0.000177826 4.05311e-05 0)
(-0.000241754 4.52012e-05 0)
(-0.000312193 4.97004e-05 0)
(-0.000388906 5.40164e-05 0)
(-0.00047164 5.81399e-05 0)
(-0.000560125 6.20635e-05 0)
(-0.00065408 6.57821e-05 0)
(-0.000753219 6.92918e-05 0)
(-0.000857246 7.259e-05 0)
(-0.000965862 7.56751e-05 0)
(-0.00107877 7.85466e-05 0)
(-0.00119566 8.12043e-05 0)
(-0.00131623 8.36489e-05 0)
(-0.00144018 8.58816e-05 0)
(-0.0015672 8.79039e-05 0)
(-0.001697 8.97179e-05 0)
(-0.00182928 9.13257e-05 0)
(-0.00196374 9.27301e-05 0)
(-0.00210009 9.39337e-05 0)
(-0.00223804 9.49396e-05 0)
(-0.00237731 9.57509e-05 0)
(-0.00251762 9.6371e-05 0)
(-0.0026587 9.68034e-05 0)
(-0.00280028 9.70516e-05 0)
(-0.00294208 9.71194e-05 0)
(-0.00308385 9.70103e-05 0)
(-0.00322534 9.67284e-05 0)
(-0.0033663 9.62774e-05 0)
(-0.00350648 9.56613e-05 0)
(-0.00364565 9.48841e-05 0)
(-0.00378356 9.39498e-05 0)
(-0.00392001 9.28624e-05 0)
(-0.00405476 9.16261e-05 0)
(-0.0041876 9.02448e-05 0)
(-0.00431833 8.87228e-05 0)
(-0.00444673 8.70641e-05 0)
(-0.00457262 8.52729e-05 0)
(-0.0046958 8.33534e-05 0)
(-0.00481608 8.13097e-05 0)
(-0.0049333 7.9146e-05 0)
(-0.00504726 7.68666e-05 0)
(-0.00515782 7.44755e-05 0)
(-0.00526481 7.19772e-05 0)
(-0.00536807 6.93757e-05 0)
(-0.00546745 6.66754e-05 0)
(-0.00556282 6.38805e-05 0)
(-0.00565404 6.09953e-05 0)
(-0.00574098 5.8024e-05 0)
(-0.00582352 5.4971e-05 0)
(-0.00590153 5.18407e-05 0)
(-0.00597492 4.86373e-05 0)
(-0.00604357 4.53654e-05 0)
(-0.0061074 4.20292e-05 0)
(-0.0061663 3.86332e-05 0)
(-0.0062202 3.5182e-05 0)
(-0.00626901 3.16799e-05 0)
(-0.00631267 2.81316e-05 0)
(-0.00635111 2.45416e-05 0)
(-0.00638428 2.09146e-05 0)
(-0.00641212 1.72551e-05 0)
(-0.00643459 1.3568e-05 0)
(-0.00645165 9.85781e-06 0)
(-0.00646328 6.12945e-06 0)
(-0.00646944 2.3877e-06 0)
(-0.00647014 -1.36256e-06 0)
(-0.00646534 -5.11643e-06 0)
(-0.00645507 -8.86896e-06 0)
(-0.00643931 -1.26151e-05 0)
(-0.00641809 -1.635e-05 0)
(-0.00639143 -2.00683e-05 0)
(-0.00635935 -2.37651e-05 0)
(-0.00632189 -2.7435e-05 0)
(-0.00627909 -3.1073e-05 0)
(-0.00623101 -3.46738e-05 0)
(-0.0061777 -3.82321e-05 0)
(-0.00611923 -4.17425e-05 0)
(-0.00605567 -4.51997e-05 0)
(-0.00598711 -4.85985e-05 0)
(-0.00591364 -5.19333e-05 0)
(-0.00583535 -5.51987e-05 0)
(-0.00575235 -5.83893e-05 0)
(-0.00566476 -6.14998e-05 0)
(-0.00557269 -6.45245e-05 0)
(-0.00547627 -6.74582e-05 0)
(-0.00537565 -7.02953e-05 0)
(-0.00527097 -7.30305e-05 0)
(-0.00516238 -7.56583e-05 0)
(-0.00505004 -7.81733e-05 0)
(-0.00493412 -8.05703e-05 0)
(-0.0048148 -8.28439e-05 0)
(-0.00469226 -8.49888e-05 0)
(-0.00456669 -8.69999e-05 0)
(-0.0044383 -8.8872e-05 0)
(-0.00430729 -9.06e-05 0)
(-0.00417387 -9.2179e-05 0)
(-0.00403826 -9.36041e-05 0)
(-0.0039007 -9.48705e-05 0)
(-0.00376141 -9.59735e-05 0)
(-0.00362064 -9.69085e-05 0)
(-0.00347864 -9.76711e-05 0)
(-0.00333565 -9.82571e-05 0)
(-0.00319195 -9.86622e-05 0)
(-0.00304779 -9.88826e-05 0)
(-0.00290344 -9.89144e-05 0)
(-0.00275919 -9.87541e-05 0)
(-0.00261531 -9.83982e-05 0)
(-0.00247209 -9.78435e-05 0)
(-0.00232982 -9.70871e-05 0)
(-0.00218879 -9.61264e-05 0)
(-0.0020493 -9.49587e-05 0)
(-0.00191165 -9.35821e-05 0)
(-0.00177614 -9.19947e-05 0)
(-0.00164308 -9.01951e-05 0)
(-0.00151277 -8.8182e-05 0)
(-0.00138552 -8.59549e-05 0)
(-0.00126163 -8.35134e-05 0)
(-0.00114142 -8.08579e-05 0)
(-0.00102518 -7.7989e-05 0)
(-0.000913227 -7.49082e-05 0)
(-0.000805847 -7.16176e-05 0)
(-0.00070334 -6.81201e-05 0)
(-0.000605992 -6.44196e-05 0)
(-0.000514086 -6.05211e-05 0)
(-0.000427891 -5.6431e-05 0)
(-0.000347667 -5.21569e-05 0)
(-0.000273658 -4.77087e-05 0)
(-0.000206092 -4.30982e-05 0)
(-0.000145175 -3.83403e-05 0)
(-9.10868e-05 -3.3453e-05 0)
(-4.39751e-05 -2.84591e-05 0)
(-3.94901e-06 -2.33867e-05 0)
(2.89306e-05 -1.82711e-05 0)
(5.46624e-05 -1.31571e-05 0)
(7.33196e-05 -8.10197e-06 0)
(8.50686e-05 -3.17967e-06 0)
(9.01942e-05 1.51279e-06 0)
(8.91316e-05 5.84639e-06 0)
(8.25095e-05 9.64711e-06 0)
(7.12053e-05 1.2678e-05 0)
(5.64125e-05 1.46182e-05 0)
(3.96899e-05 1.50449e-05 0)
(2.30211e-05 1.34199e-05 0)
(9.18261e-06 9.18712e-06 0)
(1.69425e-06 2.64271e-06 0)
(2.82531e-06 -9.0933e-06 0)
(1.34104e-05 -2.3169e-05 0)
(3.10797e-05 -3.10797e-05 0)
(5.08578e-05 -3.31479e-05 0)
(6.91447e-05 -3.04717e-05 0)
(8.33798e-05 -2.41454e-05 0)
(9.14796e-05 -1.50965e-05 0)
(9.18019e-05 -4.0699e-06 0)
(8.31135e-05 8.3541e-06 0)
(6.45193e-05 2.17275e-05 0)
(3.53974e-05 3.57054e-05 0)
(-4.65391e-06 5.00213e-05 0)
(-5.58586e-05 6.44678e-05 0)
(-0.000118297 7.88827e-05 0)
(-0.000191936 9.31383e-05 0)
(-0.000276646 0.000107134 0)
(-0.000372226 0.000120788 0)
(-0.000478411 0.000134039 0)
(-0.00059489 0.000146835 0)
(-0.000721308 0.000159137 0)
(-0.000857282 0.000170912 0)
(-0.0010024 0.000182136 0)
(-0.00115624 0.000192791 0)
(-0.00131834 0.000202862 0)
(-0.00148825 0.000212338 0)
(-0.0016655 0.000221214 0)
(-0.00184962 0.000229483 0)
(-0.00204013 0.000237146 0)
(-0.00223655 0.0002442 0)
(-0.00243839 0.000250649 0)
(-0.00264517 0.000256496 0)
(-0.00285642 0.000261744 0)
(-0.00307166 0.0002664 0)
(-0.00329042 0.000270469 0)
(-0.00351222 0.000273959 0)
(-0.0037366 0.000276878 0)
(-0.00396312 0.000279235 0)
(-0.00419131 0.000281037 0)
(-0.00442074 0.000282296 0)
(-0.00465096 0.00028302 0)
(-0.00488156 0.000283219 0)
(-0.0051121 0.000282905 0)
(-0.00534219 0.000282088 0)
(-0.0055714 0.000280779 0)
(-0.00579936 0.000278989 0)
(-0.00602567 0.00027673 0)
(-0.00624995 0.000274012 0)
(-0.00647184 0.000270848 0)
(-0.00669098 0.000267249 0)
(-0.00690702 0.000263227 0)
(-0.00711961 0.000258793 0)
(-0.00732844 0.000253961 0)
(-0.00753317 0.000248741 0)
(-0.00773351 0.000243146 0)
(-0.00792913 0.000237188 0)
(-0.00811977 0.000230879 0)
(-0.00830512 0.000224231 0)
(-0.00848493 0.000217258 0)
(-0.00865893 0.00020997 0)
(-0.00882687 0.00020238 0)
(-0.00898851 0.000194501 0)
(-0.00914361 0.000186346 0)
(-0.00929196 0.000177926 0)
(-0.00943335 0.000169254 0)
(-0.00956757 0.000160344 0)
(-0.00969444 0.000151207 0)
(-0.00981377 0.000141857 0)
(-0.0099254 0.000132306 0)
(-0.0100292 0.000122567 0)
(-0.0101249 0.000112654 0)
(-0.0102125 0.00010258 0)
(-0.0102919 9.23568e-05 0)
(-0.0103628 8.1999e-05 0)
(-0.0104253 7.15198e-05 0)
(-0.0104792 6.09326e-05 0)
(-0.0105244 5.02512e-05 0)
(-0.0105609 3.94893e-05 0)
(-0.0105885 2.86607e-05 0)
(-0.0106074 1.77796e-05 0)
(-0.0106173 6.86003e-06 0)
(-0.0106183 -4.08374e-06 0)
(-0.0106105 -1.50373e-05 0)
(-0.0105937 -2.59861e-05 0)
(-0.0105679 -3.69156e-05 0)
(-0.0105333 -4.78109e-05 0)
(-0.0104899 -5.86572e-05 0)
(-0.0104376 -6.94394e-05 0)
(-0.0103766 -8.01426e-05 0)
(-0.0103069 -9.07513e-05 0)
(-0.0102286 -0.00010125 0)
(-0.0101418 -0.000111624 0)
(-0.0100467 -0.000121858 0)
(-0.00994324 -0.000131935 0)
(-0.00983168 -0.00014184 0)
(-0.00971214 -0.000151557 0)
(-0.00958477 -0.000161071 0)
(-0.00944975 -0.000170366 0)
(-0.00930727 -0.000179426 0)
(-0.00915752 -0.000188235 0)
(-0.00900072 -0.000196778 0)
(-0.00883709 -0.000205038 0)
(-0.00866686 -0.000213 0)
(-0.00849029 -0.000220648 0)
(-0.00830764 -0.000227966 0)
(-0.00811918 -0.00023494 0)
(-0.0079252 -0.000241554 0)
(-0.007726 -0.000247792 0)
(-0.0075219 -0.000253639 0)
(-0.00731321 -0.000259082 0)
(-0.00710027 -0.000264104 0)
(-0.00688343 -0.000268693 0)
(-0.00666304 -0.000272833 0)
(-0.00643949 -0.000276511 0)
(-0.00621314 -0.000279714 0)
(-0.00598438 -0.000282429 0)
(-0.00575363 -0.000284643 0)
(-0.00552128 -0.000286343 0)
(-0.00528777 -0.000287518 0)
(-0.00505351 -0.000288158 0)
(-0.00481895 -0.00028825 0)
(-0.00458454 -0.000287786 0)
(-0.00435072 -0.000286756 0)
(-0.00411796 -0.00028515 0)
(-0.00388673 -0.000282961 0)
(-0.00365749 -0.000280182 0)
(-0.00343072 -0.000276806 0)
(-0.00320691 -0.000272828 0)
(-0.00298655 -0.000268243 0)
(-0.00277011 -0.000263047 0)
(-0.00255809 -0.000257239 0)
(-0.00235098 -0.000250817 0)
(-0.00214927 -0.000243782 0)
(-0.00195344 -0.000236136 0)
(-0.00176399 -0.000227883 0)
(-0.00158137 -0.000219028 0)
(-0.00140608 -0.000209579 0)
(-0.00123857 -0.000199547 0)
(-0.00107928 -0.000188945 0)
(-0.000928669 -0.00017779 0)
(-0.000787142 -0.000166103 0)
(-0.000655101 -0.000153911 0)
(-0.000532918 -0.000141244 0)
(-0.000420934 -0.000128141 0)
(-0.000319455 -0.000114649 0)
(-0.000228739 -0.000100826 0)
(-0.000148992 -8.67407e-05 0)
(-8.0354e-05 -7.24807e-05 0)
(-2.28859e-05 -5.81523e-05 0)
(2.34483e-05 -4.38886e-05 0)
(5.8803e-05 -2.98562e-05 0)
(8.34774e-05 -1.62655e-05 0)
(9.79485e-05 -3.38414e-06 0)
(0.000102913 8.445e-06 0)
(9.93345e-05 1.87807e-05 0)
(8.85083e-05 2.70554e-05 0)
(7.21227e-05 3.25488e-05 0)
(5.22834e-05 3.43777e-05 0)
(3.15375e-05 3.15253e-05 0)
(1.34197e-05 2.30217e-05 0)
(2.77678e-06 8.77462e-06 0)
(3.20722e-06 -1.69415e-05 0)
(1.47571e-05 -3.94289e-05 0)
(3.32264e-05 -5.08706e-05 0)
(5.27487e-05 -5.26342e-05 0)
(6.92176e-05 -4.64561e-05 0)
(7.97217e-05 -3.40092e-05 0)
(8.1848e-05 -1.67534e-05 0)
(7.36457e-05 4.09909e-06 0)
(5.36065e-05 2.7568e-05 0)
(2.06021e-05 5.28705e-05 0)
(-2.61776e-05 7.93846e-05 0)
(-8.7277e-05 0.000106617 0)
(-0.00016302 0.000134174 0)
(-0.000253548 0.000161743 0)
(-0.000358851 0.000189074 0)
(-0.000478797 0.000215965 0)
(-0.00061315 0.000242256 0)
(-0.000761591 0.000267814 0)
(-0.000923732 0.000292537 0)
(-0.00109913 0.00031634 0)
(-0.00128729 0.000339157 0)
(-0.00148768 0.000360933 0)
(-0.00169975 0.000381627 0)
(-0.00192291 0.000401208 0)
(-0.00215656 0.00041965 0)
(-0.00240008 0.000436938 0)
(-0.00265284 0.00045306 0)
(-0.00291421 0.000468008 0)
(-0.00318355 0.00048178 0)
(-0.0034602 0.000494378 0)
(-0.00374353 0.000505805 0)
(-0.00403289 0.000516069 0)
(-0.00432764 0.000525177 0)
(-0.00462715 0.000533142 0)
(-0.00493078 0.000539977 0)
(-0.0052379 0.000545694 0)
(-0.00554791 0.00055031 0)
(-0.00586018 0.000553842 0)
(-0.00617412 0.000556306 0)
(-0.00648913 0.000557723 0)
(-0.00680463 0.00055811 0)
(-0.00712006 0.000557488 0)
(-0.00743484 0.000555878 0)
(-0.00774843 0.0005533 0)
(-0.00806029 0.000549776 0)
(-0.0083699 0.000545327 0)
(-0.00867673 0.000539977 0)
(-0.00898029 0.000533747 0)
(-0.00928009 0.00052666 0)
(-0.00957564 0.000518739 0)
(-0.00986649 0.000510008 0)
(-0.0101522 0.000500489 0)
(-0.0104323 0.000490206 0)
(-0.0107063 0.000479183 0)
(-0.010974 0.000467444 0)
(-0.0112348 0.000455012 0)
(-0.0114883 0.000441912 0)
(-0.0117343 0.000428168 0)
(-0.0119724 0.000413804 0)
(-0.0122021 0.000398844 0)
(-0.0124232 0.000383313 0)
(-0.0126354 0.000367235 0)
(-0.0128383 0.000350636 0)
(-0.0130318 0.000333541 0)
(-0.0132153 0.000315973 0)
(-0.0133889 0.000297959 0)
(-0.0135521 0.000279524 0)
(-0.0137048 0.000260692 0)
(-0.0138467 0.000241491 0)
(-0.0139776 0.000221945 0)
(-0.0140974 0.000202081 0)
(-0.0142059 0.000181924 0)
(-0.0143029 0.000161502 0)
(-0.0143883 0.000140841 0)
(-0.0144619 0.000119967 0)
(-0.0145237 9.89082e-05 0)
(-0.0145735 7.76911e-05 0)
(-0.0146112 5.63434e-05 0)
(-0.0146369 3.48928e-05 0)
(-0.0146504 1.33673e-05 0)
(-0.0146517 -8.20487e-06 0)
(-0.0146408 -2.97952e-05 0)
(-0.0146177 -5.13751e-05 0)
(-0.0145824 -7.29156e-05 0)
(-0.0145349 -9.43875e-05 0)
(-0.0144754 -0.000115761 0)
(-0.0144038 -0.000137008 0)
(-0.0143202 -0.000158097 0)
(-0.0142248 -0.000178998 0)
(-0.0141176 -0.000199682 0)
(-0.0139988 -0.000220117 0)
(-0.0138685 -0.000240274 0)
(-0.0137269 -0.000260121 0)
(-0.0135742 -0.000279629 0)
(-0.0134106 -0.000298764 0)
(-0.0132364 -0.000317498 0)
(-0.0130516 -0.000335798 0)
(-0.0128567 -0.000353634 0)
(-0.0126518 -0.000370975 0)
(-0.0124373 -0.000387789 0)
(-0.0122135 -0.000404045 0)
(-0.0119806 -0.000419713 0)
(-0.0117391 -0.000434762 0)
(-0.0114893 -0.000449161 0)
(-0.0112316 -0.00046288 0)
(-0.0109663 -0.000475889 0)
(-0.0106939 -0.000488159 0)
(-0.0104148 -0.000499659 0)
(-0.0101295 -0.000510362 0)
(-0.00983832 -0.000520238 0)
(-0.00954184 -0.000529259 0)
(-0.00924052 -0.000537399 0)
(-0.00893487 -0.000544631 0)
(-0.0086254 -0.000550928 0)
(-0.00831266 -0.000556265 0)
(-0.00799717 -0.000560618 0)
(-0.00767951 -0.000563963 0)
(-0.00736025 -0.000566279 0)
(-0.00703996 -0.000567542 0)
(-0.00671925 -0.000567733 0)
(-0.00639872 -0.000566833 0)
(-0.00607899 -0.000564823 0)
(-0.00576067 -0.000561688 0)
(-0.00544441 -0.000557412 0)
(-0.00513084 -0.000551981 0)
(-0.0048206 -0.000545385 0)
(-0.00451436 -0.000537613 0)
(-0.00421276 -0.000528657 0)
(-0.00391646 -0.000518512 0)
(-0.00362612 -0.000507176 0)
(-0.0033424 -0.000494646 0)
(-0.00306595 -0.000480927 0)
(-0.00279743 -0.000466024 0)
(-0.00253748 -0.000449945 0)
(-0.00228673 -0.000432705 0)
(-0.00204583 -0.000414323 0)
(-0.00181537 -0.00039482 0)
(-0.00159596 -0.000374227 0)
(-0.00138816 -0.000352581 0)
(-0.00119252 -0.000329926 0)
(-0.00100957 -0.000306317 0)
(-0.000839774 -0.00028182 0)
(-0.000683574 -0.000256515 0)
(-0.00054135 -0.0002305 0)
(-0.000413423 -0.00020389 0)
(-0.000300035 -0.000176828 0)
(-0.000201341 -0.000149488 0)
(-0.000117388 -0.000122079 0)
(-4.80971e-05 -9.4862e-05 0)
(6.76744e-06 -6.81563e-05 0)
(4.76235e-05 -4.23586e-05 0)
(7.51095e-05 -1.79625e-05 0)
(9.01268e-05 4.41623e-06 0)
(9.38877e-05 2.40092e-05 0)
(8.79731e-05 3.98628e-05 0)
(7.43899e-05 5.08104e-05 0)
(5.55819e-05 5.54685e-05 0)
(3.44535e-05 5.22839e-05 0)
(1.50674e-05 3.9706e-05 0)
(3.21543e-06 1.66738e-05 0)
(3.1354e-06 -2.49248e-05 0)
(1.40514e-05 -5.53856e-05 0)
(3.06901e-05 -6.92381e-05 0)
(4.68088e-05 -6.91405e-05 0)
(5.80211e-05 -5.76044e-05 0)
(6.11941e-05 -3.69306e-05 0)
(5.37188e-05 -9.12675e-06 0)
(3.34591e-05 2.41137e-05 0)
(-1.26731e-06 6.13903e-05 0)
(-5.17464e-05 0.000101558 0)
(-0.000118923 0.000143688 0)
(-0.00020345 0.000187023 0)
(-0.000305732 0.000230954 0)
(-0.000425963 0.000274985 0)
(-0.000564159 0.000318712 0)
(-0.000720189 0.00036181 0)
(-0.000893796 0.00040401 0)
(-0.00108462 0.000445098 0)
(-0.00129221 0.000484896 0)
(-0.00151606 0.000523261 0)
(-0.00175557 0.000560077 0)
(-0.00201012 0.000595253 0)
(-0.00227905 0.000628713 0)
(-0.00256164 0.000660401 0)
(-0.00285717 0.000690272 0)
(-0.00316489 0.000718294 0)
(-0.00348403 0.000744442 0)
(-0.00381381 0.000768702 0)
(-0.00415345 0.000791068 0)
(-0.00450216 0.000811536 0)
(-0.00485914 0.00083011 0)
(-0.0052236 0.0008468 0)
(-0.00559474 0.000861617 0)
(-0.00597178 0.000874576 0)
(-0.00635393 0.000885698 0)
(-0.00674042 0.000895002 0)
(-0.00713047 0.000902514 0)
(-0.00752333 0.000908258 0)
(-0.00791825 0.000912261 0)
(-0.00831448 0.000914554 0)
(-0.00871131 0.000915167 0)
(-0.00910802 0.000914131 0)
(-0.0095039 0.000911478 0)
(-0.00989826 0.000907243 0)
(-0.0102904 0.00090146 0)
(-0.0106798 0.000894164 0)
(-0.0110656 0.00088539 0)
(-0.0114473 0.000875176 0)
(-0.0118243 0.000863557 0)
(-0.0121959 0.000850572 0)
(-0.0125616 0.000836257 0)
(-0.0129209 0.000820651 0)
(-0.013273 0.000803793 0)
(-0.0136177 0.000785719 0)
(-0.0139542 0.000766471 0)
(-0.0142821 0.000746086 0)
(-0.0146009 0.000724604 0)
(-0.0149102 0.000702064 0)
(-0.0152095 0.000678507 0)
(-0.0154983 0.000653972 0)
(-0.0157763 0.000628499 0)
(-0.0160431 0.00060213 0)
(-0.0162982 0.000574904 0)
(-0.0165414 0.000546862 0)
(-0.0167722 0.000518046 0)
(-0.0169903 0.000488497 0)
(-0.0171955 0.000458257 0)
(-0.0173874 0.000427367 0)
(-0.0175658 0.00039587 0)
(-0.0177303 0.000363808 0)
(-0.0178809 0.000331223 0)
(-0.0180172 0.00029816 0)
(-0.018139 0.000264662 0)
(-0.0182463 0.000230771 0)
(-0.0183388 0.000196533 0)
(-0.0184163 0.000161992 0)
(-0.0184788 0.000127192 0)
(-0.0185262 9.21797e-05 0)
(-0.0185583 5.69995e-05 0)
(-0.0185751 2.16979e-05 0)
(-0.0185767 -1.36788e-05 0)
(-0.0185628 -4.90839e-05 0)
(-0.0185337 -8.44701e-05 0)
(-0.0184892 -0.00011979 0)
(-0.0184294 -0.000154996 0)
(-0.0183544 -0.000190039 0)
(-0.0182642 -0.00022487 0)
(-0.018159 -0.000259442 0)
(-0.0180389 -0.000293704 0)
(-0.0179041 -0.000327607 0)
(-0.0177546 -0.000361101 0)
(-0.0175907 -0.000394136 0)
(-0.0174127 -0.000426662 0)
(-0.0172206 -0.000458628 0)
(-0.0170149 -0.000489983 0)
(-0.0167957 -0.000520677 0)
(-0.0165634 -0.000550658 0)
(-0.0163183 -0.000579877 0)
(-0.0160607 -0.000608282 0)
(-0.015791 -0.000635822 0)
(-0.0155096 -0.000662447 0)
(-0.0152169 -0.000688106 0)
(-0.0149134 -0.000712749 0)
(-0.0145993 -0.000736327 0)
(-0.0142754 -0.00075879 0)
(-0.013942 -0.00078009 0)
(-0.0135996 -0.000800176 0)
(-0.0132488 -0.000819003 0)
(-0.0128902 -0.000836523 0)
(-0.0125243 -0.00085269 0)
(-0.0121517 -0.000867459 0)
(-0.011773 -0.000880784 0)
(-0.0113889 -0.000892623 0)
(-0.011 -0.000902934 0)
(-0.0106069 -0.000911676 0)
(-0.0102105 -0.00091881 0)
(-0.00981123 -0.000924298 0)
(-0.00940997 -0.000928103 0)
(-0.00900741 -0.000930191 0)
(-0.00860429 -0.00093053 0)
(-0.00820137 -0.000929089 0)
(-0.00779941 -0.00092584 0)
(-0.0073992 -0.000920756 0)
(-0.00700151 -0.000913815 0)
(-0.00660715 -0.000904996 0)
(-0.00621692 -0.000894281 0)
(-0.00583162 -0.000881656 0)
(-0.00545207 -0.00086711 0)
(-0.00507909 -0.000850635 0)
(-0.00471348 -0.000832228 0)
(-0.00435606 -0.000811891 0)
(-0.00400764 -0.000789631 0)
(-0.00366902 -0.00076546 0)
(-0.00334099 -0.000739395 0)
(-0.00302434 -0.000711463 0)
(-0.00271984 -0.000681696 0)
(-0.00242822 -0.000650136 0)
(-0.00215021 -0.000616836 0)
(-0.0018865 -0.000581861 0)
(-0.00163775 -0.000545287 0)
(-0.00140459 -0.000507209 0)
(-0.00118757 -0.000467742 0)
(-0.000987219 -0.000427019 0)
(-0.000803972 -0.000385205 0)
(-0.000638196 -0.000342494 0)
(-0.000490162 -0.000299122 0)
(-0.00036003 -0.000255372 0)
(-0.000247832 -0.000211587 0)
(-0.000153445 -0.00016818 0)
(-7.65663e-05 -0.000125657 0)
(-1.66817e-05 -8.46328e-05 0)
(2.69704e-05 -4.58597e-05 0)
(5.54396e-05 -1.02568e-05 0)
(7.01084e-05 2.10548e-05 0)
(7.27433e-05 4.67172e-05 0)
(6.55478e-05 6.51052e-05 0)
(5.11737e-05 7.43166e-05 0)
(3.2762e-05 7.22073e-05 0)
(1.46912e-05 5.64948e-05 0)
(3.20443e-06 2.48784e-05 0)
(2.77401e-06 -3.21035e-05 0)
(1.18672e-05 -6.9077e-05 0)
(2.45648e-05 -8.36657e-05 0)
(3.47068e-05 -7.98073e-05 0)
(3.78442e-05 -6.08429e-05 0)
(3.07296e-05 -2.97287e-05 0)
(1.06554e-05 1.09711e-05 0)
(-2.46091e-05 5.90793e-05 0)
(-7.68423e-05 0.00011277 0)
(-0.000147423 0.000170525 0)
(-0.000237383 0.00023109 0)
(-0.000347446 0.000293429 0)
(-0.000478072 0.000356692 0)
(-0.000629495 0.000420177 0)
(-0.00080175 0.000483308 0)
(-0.000994707 0.000545612 0)
(-0.00120809 0.000606697 0)
(-0.00144151 0.000666243 0)
(-0.00169447 0.000723985 0)
(-0.00196639 0.000779707 0)
(-0.0022566 0.000833234 0)
(-0.0025644 0.000884422 0)
(-0.00288902 0.000933155 0)
(-0.00322966 0.000979342 0)
(-0.00358547 0.00102291 0)
(-0.00395558 0.00106381 0)
(-0.00433911 0.001102 0)
(-0.00473514 0.00113745 0)
(-0.00514277 0.00117015 0)
(-0.00556107 0.00120008 0)
(-0.0059891 0.00122726 0)
(-0.00642594 0.00125168 0)
(-0.00687064 0.00127337 0)
(-0.00732229 0.00129234 0)
(-0.00777996 0.00130863 0)
(-0.00824273 0.00132225 0)
(-0.00870968 0.00133324 0)
(-0.00917994 0.00134163 0)
(-0.00965259 0.00134747 0)
(-0.0101268 0.0013508 0)
(-0.0106016 0.00135166 0)
(-0.0110763 0.00135009 0)
(-0.0115499 0.00134614 0)
(-0.0120217 0.00133986 0)
(-0.0124909 0.0013313 0)
(-0.0129566 0.00132051 0)
(-0.0134182 0.00130754 0)
(-0.0138748 0.00129245 0)
(-0.0143257 0.00127528 0)
(-0.0147702 0.0012561 0)
(-0.0152077 0.00123496 0)
(-0.0156373 0.00121191 0)
(-0.0160585 0.00118701 0)
(-0.0164707 0.00116031 0)
(-0.0168732 0.00113188 0)
(-0.0172654 0.00110177 0)
(-0.0176467 0.00107004 0)
(-0.0180166 0.00103675 0)
(-0.0183745 0.00100195 0)
(-0.0187199 0.000965712 0)
(-0.0190524 0.000928085 0)
(-0.0193714 0.000889132 0)
(-0.0196765 0.000848914 0)
(-0.0199672 0.00080749 0)
(-0.0202432 0.000764922 0)
(-0.020504 0.000721271 0)
(-0.0207493 0.000676598 0)
(-0.0209787 0.000630966 0)
(-0.021192 0.000584437 0)
(-0.0213887 0.000537073 0)
(-0.0215686 0.000488939 0)
(-0.0217316 0.000440098 0)
(-0.0218772 0.000390614 0)
(-0.0220053 0.000340552 0)
(-0.0221158 0.000289978 0)
(-0.0222084 0.000238957 0)
(-0.022283 0.000187556 0)
(-0.0223395 0.000135842 0)
(-0.0223778 8.38817e-05 0)
(-0.0223979 3.17442e-05 0)
(-0.0223995 -2.05022e-05 0)
(-0.0223829 -7.27884e-05 0)
(-0.0223479 -0.000125045 0)
(-0.0222945 -0.0001772 0)
(-0.0222229 -0.000229185 0)
(-0.022133 -0.000280927 0)
(-0.0220251 -0.000332354 0)
(-0.0218992 -0.000383395 0)
(-0.0217554 -0.000433976 0)
(-0.021594 -0.000484024 0)
(-0.0214152 -0.000533466 0)
(-0.0212191 -0.000582227 0)
(-0.0210061 -0.000630234 0)
(-0.0207764 -0.000677411 0)
(-0.0205303 -0.000723685 0)
(-0.0202681 -0.000768979 0)
(-0.0199903 -0.000813221 0)
(-0.0196972 -0.000856333 0)
(-0.0193891 -0.000898242 0)
(-0.0190666 -0.000938873 0)
(-0.0187302 -0.000978152 0)
(-0.0183802 -0.001016 0)
(-0.0180172 -0.00105236 0)
(-0.0176417 -0.00108713 0)
(-0.0172544 -0.00112027 0)
(-0.0168558 -0.00115168 0)
(-0.0164465 -0.00118131 0)
(-0.0160271 -0.00120908 0)
(-0.0155984 -0.00123492 0)
(-0.0151609 -0.00125876 0)
(-0.0147155 -0.00128055 0)
(-0.0142628 -0.00130021 0)
(-0.0138035 -0.00131767 0)
(-0.0133386 -0.00133289 0)
(-0.0128687 -0.0013458 0)
(-0.0123946 -0.00135635 0)
(-0.0119173 -0.00136447 0)
(-0.0114375 -0.00137011 0)
(-0.0109561 -0.00137324 0)
(-0.010474 -0.00137379 0)
(-0.00999216 -0.00137173 0)
(-0.00951137 -0.00136701 0)
(-0.0090326 -0.0013596 0)
(-0.00855678 -0.00134947 0)
(-0.00808486 -0.00133659 0)
(-0.00761779 -0.00132093 0)
(-0.00715651 -0.00130247 0)
(-0.00670199 -0.00128121 0)
(-0.00625519 -0.00125712 0)
(-0.00581706 -0.00123022 0)
(-0.00538855 -0.0012005 0)
(-0.00497063 -0.00116798 0)
(-0.00456422 -0.00113268 0)
(-0.00417025 -0.00109463 0)
(-0.00378965 -0.00105388 0)
(-0.00342329 -0.00101046 0)
(-0.00307204 -0.000964464 0)
(-0.00273674 -0.000915958 0)
(-0.00241819 -0.000865046 0)
(-0.00211714 -0.000811848 0)
(-0.00183431 -0.000756508 0)
(-0.00157033 -0.000699199 0)
(-0.00132578 -0.000640126 0)
(-0.00110117 -0.000579532 0)
(-0.000896895 -0.000517708 0)
(-0.000713244 -0.000455001 0)
(-0.000550383 -0.000391823 0)
(-0.000408331 -0.000328669 0)
(-0.000286932 -0.000266131 0)
(-0.000185831 -0.00020492 0)
(-0.000104447 -0.000145893 0)
(-4.19332e-05 -9.00779e-05 0)
(2.85811e-06 -3.87134e-05 0)
(3.14147e-05 6.71673e-06 0)
(4.56119e-05 4.44438e-05 0)
(4.77616e-05 7.23793e-05 0)
(4.06298e-05 8.80898e-05 0)
(2.74924e-05 8.8805e-05 0)
(1.2835e-05 7.14436e-05 0)
(2.90115e-06 3.24537e-05 0)
(2.23019e-06 -3.78368e-05 0)
(8.64236e-06 -7.89917e-05 0)
(1.57697e-05 -9.21086e-05 0)
(1.78832e-05 -8.22647e-05 0)
(1.06603e-05 -5.36077e-05 0)
(-9.16236e-06 -9.74319e-06 0)
(-4.43097e-05 4.62155e-05 0)
(-9.7035e-05 0.000111614 0)
(-0.000169149 0.000184205 0)
(-0.000262072 0.000262097 0)
(-0.000376875 0.000343705 0)
(-0.00051432 0.000427705 0)
(-0.0006749 0.000512993 0)
(-0.000858865 0.000598649 0)
(-0.00106626 0.000683907 0)
(-0.00129696 0.000768131 0)
(-0.00155065 0.000850792 0)
(-0.00182694 0.000931448 0)
(-0.00212526 0.00100974 0)
(-0.00244498 0.00108536 0)
(-0.0027854 0.00115806 0)
(-0.0031457 0.00122763 0)
(-0.00352505 0.00129393 0)
(-0.00392255 0.0013568 0)
(-0.00433725 0.00141614 0)
(-0.00476819 0.00147188 0)
(-0.00521436 0.00152395 0)
(-0.00567474 0.00157231 0)
(-0.00614829 0.00161694 0)
(-0.00663397 0.0016578 0)
(-0.00713073 0.00169492 0)
(-0.00763749 0.00172828 0)
(-0.00815321 0.00175791 0)
(-0.00867682 0.00178382 0)
(-0.00920727 0.00180606 0)
(-0.00974352 0.00182466 0)
(-0.0102845 0.00183965 0)
(-0.0108292 0.00185109 0)
(-0.0113766 0.00185903 0)
(-0.0119258 0.00186352 0)
(-0.0124756 0.00186461 0)
(-0.0130252 0.00186237 0)
(-0.0135735 0.00185686 0)
(-0.0141197 0.00184815 0)
(-0.0146628 0.0018363 0)
(-0.0152018 0.00182138 0)
(-0.015736 0.00180347 0)
(-0.0162645 0.00178262 0)
(-0.0167863 0.00175893 0)
(-0.0173008 0.00173245 0)
(-0.017807 0.00170328 0)
(-0.0183042 0.00167147 0)
(-0.0187916 0.00163712 0)
(-0.0192686 0.00160029 0)
(-0.0197343 0.00156106 0)
(-0.020188 0.00151953 0)
(-0.0206293 0.00147575 0)
(-0.0210572 0.00142982 0)
(-0.0214713 0.00138182 0)
(-0.021871 0.00133182 0)
(-0.0222556 0.00127991 0)
(-0.0226247 0.00122617 0)
(-0.0229776 0.00117068 0)
(-0.023314 0.00111353 0)
(-0.0236332 0.00105481 0)
(-0.0239349 0.000994583 0)
(-0.0242187 0.000932952 0)
(-0.024484 0.000869998 0)
(-0.0247306 0.000805807 0)
(-0.0249582 0.000740465 0)
(-0.0251663 0.000674061 0)
(-0.0253546 0.000606682 0)
(-0.025523 0.000538418 0)
(-0.0256712 0.000469359 0)
(-0.0257988 0.000399594 0)
(-0.0259058 0.000329214 0)
(-0.025992 0.000258312 0)
(-0.0260573 0.00018698 0)
(-0.0261014 0.000115312 0)
(-0.0261245 4.34005e-05 0)
(-0.0261263 -2.86583e-05 0)
(-0.0261068 -0.000100769 0)
(-0.0260662 -0.000172836 0)
(-0.0260043 -0.000244762 0)
(-0.0259213 -0.000316448 0)
(-0.0258172 -0.000387796 0)