/*--------------------------------*- C++ -*----------------------------------*\
  =========                 |
  \\      /  F ield         | OpenFOAM: The Open Source CFD Toolbox
   \\    /   O peration     | Website:  https://openfoam.org
    \\  /    A nd           | Version:  7
     \\/     M anipulation  |
\*---------------------------------------------------------------------------*/
FoamFile
{
    version     2.0;
    format      ascii;
    class       volScalarField;
    location    "0.2125";
    object      p;
}
// * * * * * * * * * * * * * * * * * * * * * * * * * * * * * * * * * * * * * //

dimensions      [0 2 -2 0 0 0 0];

internalField   nonuniform List<scalar> 
25600
(
-3.13376e-07
0.000131311
0.000188809
0.000106381
-0.000127589
-0.000506285
-0.00101745
-0.00164596
-0.00237584
-0.00319142
-0.00407819
-0.00502224
-0.00601096
-0.00703264
-0.00807636
-0.00913239
-0.0101916
-0.0112456
-0.012287
-0.0133087
-0.0143044
-0.0152683
-0.0161952
-0.0170801
-0.0179188
-0.0187072
-0.0194419
-0.0201195
-0.0207371
-0.0212923
-0.0217827
-0.0222063
-0.0225613
-0.0228463
-0.0230599
-0.0232012
-0.0232692
-0.0232634
-0.0231832
-0.0230283
-0.0227987
-0.0224943
-0.0221153
-0.0216621
-0.021135
-0.0205348
-0.0198621
-0.0191177
-0.0183026
-0.0174178
-0.0164645
-0.0154439
-0.0143574
-0.0132064
-0.0119924
-0.010717
-0.00938181
-0.00798869
-0.00653944
-0.00503596
-0.00348019
-0.00187415
-0.000219927
0.00148032
0.00322439
0.00501003
0.00683494
0.00869676
0.0105931
0.0125215
0.0144795
0.0164645
0.018474
0.0205055
0.0225562
0.0246235
0.0267048
0.0287973
0.0308983
0.0330051
0.0351148
0.0372247
0.0393319
0.0414338
0.0435274
0.04561
0.0476788
0.0497309
0.0517637
0.0537741
0.0557596
0.0577174
0.0596447
0.0615388
0.063397
0.0652168
0.0669955
0.0687305
0.0704194
0.0720598
0.0736491
0.0751852
0.0766656
0.0780883
0.0794511
0.080752
0.081989
0.0831604
0.0842643
0.0852991
0.0862633
0.0871554
0.0879741
0.0887184
0.0893871
0.0899794
0.0904945
0.0909318
0.0912909
0.0915716
0.0917737
0.0918974
0.091943
0.0919109
0.0918019
0.0916168
0.0913568
0.0910232
0.0906178
0.0901422
0.0895988
0.0889898
0.088318
0.0875865
0.0867985
0.0859577
0.0850681
0.0841342
0.0831607
0.0821528
0.0811163
0.0800572
0.0789823
0.0778988
0.0768145
0.0757379
0.0746782
0.0736451
0.0726494
0.0717026
0.070817
0.0700059
0.0692831
0.0686631
0.0681603
0.0677879
0.0675551
0.067464
0.0675036
0.0676184
-9.08494e-05
3.91864e-05
6.58126e-05
-3.45682e-05
-0.000259604
-0.000606629
-0.00106846
-0.0016342
-0.00229154
-0.00302785
-0.00383067
-0.0046881
-0.00558884
-0.00652225
-0.00747847
-0.00844823
-0.00942309
-0.0103951
-0.0113571
-0.0123024
-0.0132249
-0.0141189
-0.0149792
-0.0158013
-0.0165808
-0.0173137
-0.0179966
-0.0186262
-0.0191997
-0.0197144
-0.0201681
-0.0205587
-0.0208845
-0.0211439
-0.0213356
-0.0214585
-0.0215117
-0.0214944
-0.0214063
-0.0212468
-0.0210159
-0.0207134
-0.0203395
-0.0198945
-0.0193787
-0.0187926
-0.0181369
-0.0174124
-0.01662
-0.0157605
-0.0148351
-0.0138449
-0.0127912
-0.0116753
-0.0104988
-0.00926309
-0.00796981
-0.00662061
-0.00521726
-0.00376157
-0.00225542
-0.000700739
0.000900444
0.00254607
0.00423401
0.00596211
0.00772811
0.00952975
0.0113647
0.0132307
0.0151252
0.0170458
0.0189901
0.0209555
0.0229396
0.0249396
0.0269531
0.0289774
0.0310098
0.0330478
0.0350886
0.0371295
0.0391678
0.0412008
0.0432258
0.0452401
0.047241
0.0492258
0.0511917
0.0531361
0.0550563
0.0569496
0.0588135
0.0606453
0.0624424
0.0642023
0.0659225
0.0676005
0.0692341
0.0708207
0.0723581
0.0738441
0.0752765
0.0766532
0.0779721
0.0792315
0.0804293
0.081564
0.0826337
0.083637
0.0845724
0.0854385
0.0862342
0.0869583
0.08761
0.0881884
0.0886929
0.0891229
0.089478
0.0897581
0.0899632
0.0900934
0.0901491
0.0901308
0.0900392
0.0898753
0.0896403
0.0893355
0.0889626
0.0885234
0.0880202
0.0874553
0.0868313
0.0861514
0.0854187
0.0846369
0.08381
0.0829421
0.0820381
0.081103
0.0801422
0.0791618
0.0781682
0.0771682
0.0761693
0.0751796
0.0742074
0.0732621
0.0723534
0.0714916
0.0706878
0.0699533
0.0692999
0.0687392
0.0682821
0.0679381
0.0677124
0.0676051
0.0676183
0.0677332
-8.92044e-05
5.90142e-05
7.7952e-05
-2.90205e-05
-0.000247147
-0.000573521
-0.00100259
-0.00152545
-0.00213189
-0.00281118
-0.00355263
-0.00434557
-0.00517988
-0.00604589
-0.00693451
-0.0078371
-0.0087458
-0.00965305
-0.010552
-0.0114363
-0.0122999
-0.0131376
-0.0139443
-0.0147153
-0.0154466
-0.0161342
-0.0167747
-0.017365
-0.0179021
-0.0183836
-0.018807
-0.0191704
-0.0194719
-0.0197101
-0.0198835
-0.0199911
-0.0200319
-0.0200052
-0.0199104
-0.0197471
-0.019515
-0.0192141
-0.0188445
-0.0184062
-0.0178998
-0.0173256
-0.0166842
-0.0159764
-0.0152028
-0.0143646
-0.0134626
-0.0124979
-0.0114719
-0.0103856
-0.00924063
-0.00803835
-0.0067803
-0.00546809
-0.00410341
-0.00268799
-0.00122364
0.000287736
0.00184419
0.00344375
0.00508436
0.00676391
0.00848023
0.0102311
0.0120143
0.0138276
0.0156686
0.0175349
0.0194241
0.0213338
0.0232616
0.0252049
0.0271612
0.029128
0.0311026
0.0330826
0.0350652
0.037048
0.0390282
0.0410032
0.0429704
0.0449272
0.0468709
0.0487989
0.0507086
0.0525974
0.0544627
0.0563018
0.0581123
0.0598917
0.0616374
0.0633471
0.0650182
0.0666484
0.0682354
0.0697769
0.0712708
0.0727148
0.0741069
0.0754451
0.0767273
0.0779519
0.0791169
0.0802209
0.081262
0.0822389
0.0831502
0.0839947
0.0847711
0.0854785
0.086116
0.0866829
0.0871784
0.0876023
0.0879541
0.0882338
0.0884413
0.0885769
0.0886409
0.088634
0.0885568
0.0884105
0.088196
0.087915
0.0875688
0.0871596
0.0866894
0.0861605
0.0855758
0.084938
0.0842504
0.0835165
0.0827403
0.0819259
0.081078
0.0802013
0.0793012
0.0783835
0.0774543
0.0765203
0.0755884
0.0746662
0.0737617
0.0728835
0.0720406
0.0712423
0.0704986
0.0698196
0.0692153
0.0686957
0.0682699
0.0679459
0.067728
0.0676181
0.0676315
0.0677729
4.61328e-05
0.000201934
0.000217002
0.000105772
-0.000109444
-0.000424096
-0.000832704
-0.00132719
-0.00189835
-0.0025368
-0.00323297
-0.00397736
-0.00476078
-0.00557433
-0.00640963
-0.0072587
-0.00811403
-0.00896866
-0.00981602
-0.01065
-0.011465
-0.0122557
-0.0130174
-0.0137456
-0.0144362
-0.0150855
-0.0156901
-0.0162468
-0.0167529
-0.0172058
-0.0176032
-0.0179432
-0.0182238
-0.0184437
-0.0186014
-0.0186957
-0.0187258
-0.0186908
-0.0185902
-0.0184236
-0.0181906
-0.0178911
-0.0175252
-0.0170929
-0.0165947
-0.0160309
-0.0154021
-0.0147089
-0.0139521
-0.0131325
-0.0122511
-0.011309
-0.0103072
-0.00924709
-0.00812993
-0.00695713
-0.00573017
-0.00445062
-0.00312008
-0.00174024
-0.000312841
0.00116027
0.00267721
0.00423605
0.0058348
0.00747142
0.0091438
0.0108498
0.0125873
0.0143539
0.0161476
0.0179658
0.0198064
0.0216669
0.0235449
0.025438
0.0273438
0.0292597
0.0311833
0.033112
0.0350433
0.0369746
0.0389035
0.0408273
0.0427435
0.0446495
0.0465427
0.0484207
0.0502808
0.0521205
0.0539373
0.0557287
0.0574923
0.0592255
0.060926
0.0625914
0.0642192
0.0658074
0.0673535
0.0688555
0.070311
0.0717182
0.0730749
0.0743793
0.0756293
0.0768234
0.0779597
0.0790367
0.0800529
0.0810067
0.0818969
0.0827224
0.083482
0.0841747
0.0847999
0.0853566
0.0858444
0.0862629
0.0866117
0.086891
0.0871005
0.0872407
0.0873119
0.0873148
0.08725
0.0871187
0.0869219
0.0866611
0.0863379
0.0859543
0.0855122
0.085014
0.0844625
0.0838604
0.0832109
0.0825175
0.0817839
0.0810143
0.0802131
0.0793849
0.078535
0.0776689
0.0767924
0.0759118
0.0750338
0.0741656
0.0733146
0.0724887
0.0716964
0.0709462
0.0702471
0.0696081
0.0690383
0.0685466
0.0681414
0.0678301
0.0676175
0.0675078
0.0675242
0.0676823
0.000319649
0.000462489
0.000464821
0.000344673
0.000126971
-0.000182624
-0.000578418
-0.00105275
-0.00159731
-0.00220369
-0.00286324
-0.00356748
-0.00430799
-0.00507672
-0.00586589
-0.00666814
-0.00747645
-0.00828428
-0.00908545
-0.00987415
-0.0106451
-0.0113931
-0.0121137
-0.0128026
-0.0134558
-0.0140697
-0.014641
-0.0151666
-0.0156438
-0.0160701
-0.0164433
-0.0167613
-0.0170224
-0.0172251
-0.017368
-0.0174499
-0.01747
-0.0174273
-0.0173213
-0.0171515
-0.0169176
-0.0166196
-0.0162573
-0.0158308
-0.0153405
-0.0147868
-0.01417
-0.0134909
-0.0127501
-0.0119484
-0.0110868
-0.0101662
-0.00918786
-0.00815283
-0.00706242
-0.00591796
-0.00472091
-0.00347275
-0.00217504
-0.000829415
0.000562418
0.0019987
0.00347762
0.00499728
0.00655575
0.00815105
0.00978114
0.011444
0.0131374
0.0148592
0.0166072
0.0183792
0.0201729
0.021986
0.0238162
0.025661
0.0275181
0.0293851
0.0312595
0.0331389
0.0350208
0.0369028
0.0387823
0.0406569
0.042524
0.0443812
0.046226
0.0480558
0.0498683
0.0516609
0.0534313
0.0551769
0.0568953
0.0585843
0.0602414
0.0618643
0.0634508
0.0649986
0.0665056
0.0679696
0.0693886
0.0707605
0.0720833
0.0733553
0.0745746
0.0757395
0.0768484
0.0778997
0.0788919
0.0798237
0.0806939
0.0815012
0.0822447
0.0829235
0.0835367
0.0840838
0.0845641
0.0849774
0.0853235
0.0856021
0.0858136
0.085958
0.0860359
0.0860478
0.0859946
0.0858773
0.085697
0.0854551
0.0851533
0.0847933
0.0843774
0.0839077
0.0833869
0.0828178
0.0822035
0.0815472
0.0808528
0.0801241
0.0793654
0.0785813
0.0777767
0.0769569
0.0761275
0.0752945
0.0744641
0.0736431
0.0728383
0.0720574
0.0713078
0.0705975
0.0699347
0.0693275
0.0687842
0.0683129
0.0679213
0.0676166
0.0674041
0.0672896
0.0672988
0.0674507
0.00073038
0.000839953
0.000818382
0.00068235
0.000455389
0.00014384
-0.000246522
-0.000708516
-0.00123458
-0.00181698
-0.00244804
-0.00311999
-0.00382524
-0.00455646
-0.0053065
-0.00606849
-0.006836
-0.00760285
-0.00836323
-0.00911173
-0.00984321
-0.0105529
-0.0112365
-0.0118897
-0.0125089
-0.0130905
-0.0136313
-0.0141284
-0.014579
-0.0149808
-0.0153316
-0.0156294
-0.0158724
-0.0160592
-0.0161883
-0.0162587
-0.0162694
-0.0162196
-0.0161086
-0.015936
-0.0157015
-0.0154049
-0.0150461
-0.0146252
-0.0141425
-0.0135983
-0.0129931
-0.0123274
-0.0116019
-0.0108174
-0.00997469
-0.00907478
-0.00811873
-0.00710766
-0.0060428
-0.00492545
-0.00375698
-0.00253883
-0.00127251
4.03913e-05
0.00139822
0.00279928
0.00424181
0.00572399
0.00724393
0.0087997
0.0103893
0.0120108
0.0136621
0.015341
0.0170454
0.0187731
0.020522
0.0222898
0.0240741
0.0258728
0.0276834
0.0295036
0.031331
0.0331632
0.0349979
0.0368327
0.0386651
0.0404926
0.0423128
0.0441234
0.0459219
0.0477059
0.049473
0.0512206
0.0529466
0.0546485
0.056324
0.0579708
0.0595866
0.0611691
0.0627161
0.0642255
0.0656952
0.0671231
0.0685072
0.0698456
0.0711363
0.0723775
0.0735676
0.0747048
0.0757875
0.0768144
0.0777839
0.0786948
0.0795458
0.080336
0.0810642
0.0817297
0.0823317
0.0828695
0.0833427
0.0837511
0.0840943
0.0843723
0.0845854
0.0847336
0.0848176
0.0848379
0.0847954
0.0846909
0.0845258
0.0843013
0.0840192
0.0836811
0.0832891
0.0828456
0.082353
0.081814
0.0812316
0.0806092
0.0799502
0.0792585
0.0785381
0.0777935
0.0770293
0.0762507
0.0754628
0.0746713
0.0738823
0.0731018
0.0723364
0.0715931
0.0708787
0.0702007
0.0695664
0.0689833
0.0684589
0.0680006
0.0676156
0.0673108
0.0670919
0.0669651
0.0669553
0.0670801
0.00126876
0.00132874
0.00127255
0.00111312
0.000869827
0.000549206
0.000156964
-0.000300219
-0.000815394
-0.00138163
-0.00199192
-0.00263923
-0.00331669
-0.00401754
-0.00473528
-0.00546363
-0.0061965
-0.00692824
-0.00765339
-0.00836682
-0.00906374
-0.00973963
-0.0103903
-0.0110118
-0.0116005
-0.0121531
-0.0126664
-0.0131376
-0.0135642
-0.0139437
-0.0142741
-0.0145534
-0.0147799
-0.0149521
-0.0150687
-0.0151286
-0.0151308
-0.0150745
-0.014959
-0.014784
-0.014549
-0.0142538
-0.0138984
-0.013483
-0.0130075
-0.0124725
-0.0118782
-0.0112253
-0.0105143
-0.00974602
-0.00892126
-0.00804094
-0.00710605
-0.0061177
-0.00507707
-0.00398542
-0.00284406
-0.00165438
-0.00041784
0.000864012
0.00218958
0.00355723
0.00496525
0.00641184
0.00789521
0.00941347
0.0109647
0.012547
0.0141582
0.0157964
0.0174594
0.0191452
0.0208515
0.0225763
0.0243171
0.026072
0.0278385
0.0296143
0.0313971
0.0331847
0.0349747
0.0367647
0.0385523
0.0403353
0.0421112
0.0438776
0.0456323
0.0473728
0.0490969
0.050802
0.0524861
0.0541466
0.0557815
0.0573884
0.0589651
0.0605094
0.0620192
0.0634924
0.0649269
0.0663207
0.0676719
0.0689786
0.070239
0.0714512
0.0726137
0.0737248
0.074783
0.0757868
0.076735
0.0776261
0.0784592
0.0792331
0.079947
0.0805999
0.0811912
0.0817203
0.0821868
0.0825904
0.0829308
0.0832082
0.0834225
0.0835742
0.0836637
0.0836915
0.0836586
0.0835659
0.0834145
0.0832059
0.0829415
0.0826232
0.082253
0.0818331
0.0813659
0.080854
0.0803004
0.0797082
0.0790808
0.0784219
0.0777354
0.0770256
0.0762968
0.0755539
0.0748019
0.0740461
0.073292
0.0725455
0.0718126
0.0710998
0.0704134
0.0697602
0.069147
0.0685805
0.0680676
0.0676151
0.0672297
0.0669179
0.0666854
0.0665386
0.0664985
0.0665795
0.00192167
0.00191938
0.00181933
0.00162921
0.00136281
0.00102635
0.000625398
0.000166158
-0.000345147
-0.000902224
-0.0014987
-0.00212831
-0.0027847
-0.00346177
-0.00415356
-0.00485426
-0.00555831
-0.00626041
-0.00695547
-0.00763871
-0.00830563
-0.00895195
-0.00957366
-0.0101671
-0.0107288
-0.0112554
-0.0117442
-0.0121923
-0.0125972
-0.0129566
-0.0132685
-0.0135311
-0.0137426
-0.0139017
-0.0140069
-0.0140573
-0.0140517
-0.0139896
-0.0138702
-0.013693
-0.0134577
-0.0131641
-0.0128121
-0.0124018
-0.0119333
-0.011407
-0.0108232
-0.0101824
-0.00948519
-0.00873232
-0.00792456
-0.0070628
-0.00614798
-0.00518117
-0.00416351
-0.00309622
-0.00198054
-0.000817835
0.000390465
0.00164288
0.00293787
0.00427385
0.00564914
0.007062
0.00851069
0.00999338
0.0115082
0.0130533
0.0146266
0.0162261
0.0178499
0.0194959
0.0211619
0.0228459
0.0245456
0.0262589
0.0279836
0.0297173
0.031458
0.0332032
0.0349508
0.0366985
0.0384438
0.0401846
0.0419185
0.0436432
0.0453564
0.0470559
0.0487392
0.0504042
0.0520486
0.0536702
0.0552666
0.0568359
0.0583757
0.059884
0.0613586
0.0627976
0.0641989
0.0655606
0.0668809
0.0681577
0.0693895
0.0705745
0.071711
0.0727975
0.0738326
0.0748147
0.0757428
0.0766154
0.0774315
0.0781902
0.0788905
0.0795316
0.0801128
0.0806337
0.0810937
0.0814927
0.0818304
0.0821069
0.0823223
0.0824769
0.0825712
0.0826058
0.0825816
0.0824994
0.0823604
0.0821661
0.0819178
0.0816173
0.0812666
0.0808679
0.0804234
0.0799357
0.0794077
0.0788424
0.0782429
0.077613
0.0769562
0.0762766
0.0755785
0.0748663
0.0741449
0.0734191
0.0726941
0.0719755
0.0712688
0.07058
0.0699149
0.0692798
0.0686807
0.068124
0.0676158
0.0671625
0.06677
0.0664446
0.0661917
0.0660173
0.0659374
0.0659614
0.00267502
0.00260108
0.00244945
0.00222217
0.00192643
0.00156796
0.00115222
0.00068465
0.000170913
-0.0003833
-0.000972332
-0.00159044
-0.0022319
-0.00289119
-0.00356281
-0.00424145
-0.00492201
-0.00559953
-0.00626935
-0.00692697
-0.00756816
-0.00818892
-0.00878548
-0.00935435
-0.00989221
-0.010396
-0.0108629
-0.0112904
-0.0116759
-0.0120173
-0.0123127
-0.0125603
-0.0127583
-0.0129055
-0.0130005
-0.0130423
-0.0130299
-0.0129626
-0.0128397
-0.0126607
-0.0124254
-0.0121335
-0.0117849
-0.0113796
-0.0109178
-0.0103998
-0.00982589
-0.00919662
-0.00851253
-0.0077743
-0.00698266
-0.00613848
-0.00524267
-0.00429628
-0.00330039
-0.00225616
-0.00116481
-2.76697e-05
0.00115388
0.00237842
0.00364445
0.00495043
0.0062947
0.00767561
0.00909145
0.0105405
0.0120208
0.0135306
0.015068
0.016631
0.0182176
0.0198259
0.0214537
0.0230991
0.0247598
0.0264338
0.0281189
0.0298129
0.0315136
0.0332188
0.0349263
0.0366339
0.0383392
0.0400401
0.0417343
0.0434196
0.0450936
0.0467543
0.0483992
0.0500263
0.0516333
0.053218
0.0547782
0.056312
0.057817
0.0592913
0.0607329
0.0621396
0.0635097
0.0648412
0.0661322
0.0673811
0.0685859
0.0697452
0.0708573
0.0719207
0.072934
0.0738959
0.0748049
0.0756601
0.0764604
0.0772046
0.0778921
0.0785221
0.0790938
0.0796068
0.0800607
0.0804552
0.0807902
0.0810657
0.0812819
0.081439
0.0815376
0.0815782
0.0815617
0.0814889
0.081361
0.0811794
0.0809455
0.0806609
0.0803277
0.0799478
0.0795235
0.0790573
0.0785518
0.0780101
0.0774352
0.0768304
0.0761994
0.0755459
0.0748739
0.0741878
0.0734919
0.0727909
0.0720897
0.0713934
0.0707071
0.0700363
0.0693864
0.0687631
0.0681721
0.0676189
0.0671093
0.066649
0.0662434
0.0658982
0.0656184
0.0654099
0.0652823
0.0652396
0.003515
0.0033626
0.00315345
0.00288347
0.00255289
0.00216699
0.00173087
0.00124939
0.000727567
0.000170451
-0.000416819
-0.00102909
-0.00166125
-0.0023082
-0.00296497
-0.00362671
-0.00428871
-0.0049464
-0.00559548
-0.00623174
-0.00685124
-0.00745025
-0.00802522
-0.00857286
-0.00909
-0.0095738
-0.0100216
-0.0104308
-0.0107992
-0.0111247
-0.0114054
-0.0116395
-0.0118256
-0.0119622
-0.0120481
-0.0120822
-0.0120638
-0.0119919
-0.0118661
-0.0116858
-0.0114506
-0.0111605
-0.0108152
-0.0104148
-0.00995945
-0.00944941
-0.008885
-0.0082667
-0.00759505
-0.00687069
-0.00609433
-0.0052668
-0.004389
-0.00346192
-0.00248662
-0.00146421
-0.000395883
0.000717075
0.00187334
0.00307151
0.00431015
0.00558773
0.00690268
0.00825337
0.00963815
0.0110553
0.012503
0.0139795
0.0154829
0.0170113
0.0185628
0.0201354
0.0217272
0.023336
0.0249599
0.0265967
0.0282444
0.0299008
0.0315638
0.0332312
0.0349009
0.0365706
0.0382382
0.0399015
0.0415582
0.0432063
0.0448434
0.0464675
0.0480762
0.0496676
0.0512393
0.0527893
0.0543155
0.0558158
0.0572881
0.0587304
0.0601408
0.0615173
0.062858
0.0641611
0.0654247
0.0666472
0.0678268
0.068962
0.0700512
0.0710929
0.0720858
0.0730286
0.0739199
0.0747587
0.075544
0.0762748
0.0769502
0.0775696
0.0781324
0.0786379
0.0790859
0.0794761
0.0798084
0.0800828
0.0802994
0.0804586
0.0805609
0.0806067
0.080597
0.0805325
0.0804145
0.0802441
0.080023
0.0797525
0.0794347
0.0790714
0.0786648
0.0782174
0.0777317
0.0772105
0.0766567
0.0760736
0.0754646
0.0748331
0.0741832
0.0735186
0.0728437
0.0721627
0.0714802
0.070801
0.0701297
0.0694715
0.0688313
0.0682142
0.0676255
0.0670703
0.0665537
0.0660807
0.0656565
0.0652859
0.0649738
0.0647255
0.064544
0.0644274
0.00442833
0.00419293
0.00392165
0.0036045
0.0032344
0.00281622
0.00235488
0.00185451
0.00131951
0.000754394
0.000163729
-0.000447855
-0.00107578
-0.00171537
-0.00236219
-0.00301176
-0.00365976
-0.00430204
-0.00493457
-0.00555347
-0.00615508
-0.00673592
-0.00729266
-0.0078222
-0.00832159
-0.00878815
-0.00921927
-0.00961265
-0.00996608
-0.0102776
-0.0105453
-0.0107677
-0.0109432
-0.0110704
-0.0111483
-0.0111758
-0.0111521
-0.0110764
-0.0109481
-0.0107667
-0.010532
-0.0102437
-0.00990178
-0.00950617
-0.00905705
-0.00855464
-0.00799927
-0.0073914
-0.00673155
-0.00602033
-0.00525844
-0.00444666
-0.00358589
-0.00267707
-0.00172121
-0.000719411
0.000327163
0.00141729
0.00254967
0.00372295
0.00493573
0.0061865
0.00747375
0.00879592
0.0101514
0.0115384
0.0129553
0.0144004
0.0158717
0.0173675
0.0188858
0.0204248
0.0219825
0.0235569
0.025146
0.0267478
0.0283602
0.0299812
0.0316086
0.0332404
0.0348744
0.0365084
0.0381405
0.0397683
0.0413898
0.0430028
0.0446052
0.0461949
0.0477696
0.0493273
0.0508659
0.0523833
0.0538775
0.0553464
0.056788
0.0582003
0.0595815
0.0609296
0.0622427
0.0635192
0.0647571
0.0659549
0.0671109
0.0682235
0.0692913
0.0703127
0.0712865
0.0722113
0.073086
0.0739095
0.0746808
0.0753989
0.0760631
0.0766725
0.0772268
0.0777253
0.0781677
0.0785537
0.0788832
0.0791563
0.0793732
0.079534
0.0796393
0.0796897
0.0796859
0.0796287
0.0795193
0.0793588
0.0791488
0.0788907
0.0785863
0.0782374
0.0778463
0.0774151
0.0769464
0.0764428
0.075907
0.0753423
0.0747516
0.0741385
0.0735066
0.0728595
0.0722012
0.0715357
0.0708673
0.0702003
0.0695392
0.0688885
0.0682528
0.0676369
0.0670454
0.066483
0.0659543
0.0654638
0.065016
0.0646152
0.064266
0.0639732
0.063733
0.0635377
0.0054029
0.00508139
0.00474466
0.00437675
0.00396325
0.00350874
0.0030179
0.00249425
0.00194159
0.00136389
0.000765203
0.000149662
-0.000478585
-0.00111541
-0.00175669
-0.00239843
-0.00303667
-0.00366759
-0.00428746
-0.00489273
-0.00548003
-0.00604605
-0.00658773
-0.00710216
-0.00758661
-0.00803849
-0.00845541
-0.00883516
-0.00917567
-0.00947505
-0.00973157
-0.00994368
-0.0101099
-0.0102291
-0.0103
-0.0103218
-0.0102936
-0.0102146
-0.0100843
-0.00990235
-0.00966833
-0.00938205
-0.00904343
-0.0086525
-0.00820937
-0.00771426
-0.00716752
-0.00656957
-0.00592091
-0.00522212
-0.0044739
-0.00367702
-0.00283232
-0.00194072
-0.00100321
-2.08504e-05
0.00100522
0.00207382
0.00318369
0.00433351
0.0055219
0.00674741
0.00800858
0.00930387
0.0106317
0.0119904
0.0133783
0.0147937
0.0162348
0.0176998
0.0191869
0.0206942
0.0222199
0.0237618
0.0253182
0.026887
0.0284663
0.0300539
0.0316479
0.0332461
0.0348466
0.0364471
0.0380458
0.0396403
0.0412287
0.0428088
0.0443786
0.0459359
0.0474787
0.0490049
0.0505124
0.0519993
0.0534634
0.0549029
0.0563158
0.0577
0.0590538
0.0603753
0.0616627
0.0629143
0.0641282
0.065303
0.0664369
0.0675284
0.0685761
0.0695786
0.0705345
0.0714427
0.0723019
0.073111
0.0738692
0.0745754
0.075229
0.0758292
0.0763754
0.0768672
0.0773042
0.0776862
0.078013
0.0782847
0.0785015
0.0786636
0.0787714
0.0788256
0.0788268
0.0787759
0.0786739
0.078522
0.0783216
0.0780742
0.0777813
0.0774449
0.077067
0.0766496
0.0761953
0.0757065
0.0751858
0.0746361
0.0740606
0.0734623
0.0728447
0.0722112
0.0715655
0.0709114
0.0702527
0.0695936
0.0689381
0.0682903
0.0676546
0.0670352
0.0664363
0.065862
0.0653167
0.0648043
0.0643286
0.0638933
0.063503
0.0631621
0.0628596
0.0625822
0.00642746
0.00601799
0.00561347
0.00519203
0.00473201
0.00423771
0.00371369
0.00316296
0.00258867
0.00199431
0.0013835
0.000759843
0.000127096
-0.000511065
-0.00115089
-0.00178878
-0.00242112
-0.0030444
-0.00365524
-0.00425036
-0.00482662
-0.00538096
-0.00591056
-0.0064127
-0.00688484
-0.00732452
-0.00772954
-0.00809778
-0.00842731
-0.00871637
-0.00896331
-0.00916664
-0.009325
-0.00943722
-0.00950225
-0.00951916
-0.00948714
-0.00940553
-0.00927381
-0.00909154
-0.00885843
-0.00857428
-0.00823902
-0.00785265
-0.0074153
-0.0069272
-0.00638869
-0.00580016
-0.00516209
-0.00447506
-0.00373975
-0.00295691
-0.00212736
-0.00125198
-0.000331748
0.000632305
0.00163908
0.00268744
0.00377613
0.00490388
0.00606933
0.0072711
0.00850775
0.00977776
0.0110796
0.0124116
0.0137723
0.0151598
0.0165725
0.0180087
0.0194664
0.020944
0.0224394
0.023951
0.0254766
0.0270145
0.0285626
0.0301189
0.0316815
0.0332483
0.0348173
0.0363864
0.0379537
0.0395171
0.0410744
0.0426237
0.044163
0.0456901
0.047203
0.0486996
0.0501781
0.0516364
0.0530725
0.0544845
0.0558705
0.0572286
0.0585568
0.0598535
0.0611169
0.0623453
0.0635369
0.0646901
0.0658035
0.0668754
0.0679044
0.0688892
0.0698286
0.0707212
0.0715659
0.0723617
0.0731077
0.0738029
0.0744465
0.075038
0.0755767
0.0760621
0.076494
0.076872
0.0771962
0.0774664
0.0776828
0.0778458
0.0779556
0.0780129
0.0780183
0.0779727
0.0778771
0.0777325
0.0775403
0.0773019
0.0770188
0.0766929
0.076326
0.0759203
0.0754779
0.0750012
0.0744927
0.0739553
0.0733917
0.072805
0.0721982
0.0715747
0.0709379
0.0702912
0.0696384
0.068983
0.068329
0.06768
0.06704
0.0664129
0.0658024
0.0652123
0.0646463
0.064108
0.0636007
0.0631275
0.0626928
0.0623007
0.0619334
0.0615719
0.00749189
0.00699352
0.00651959
0.00604248
0.00553344
0.0049965
0.00443625
0.00385511
0.00325572
0.00264115
0.00201452
0.00137905
0.000738046
9.48531e-05
-0.000547223
-0.0011849
-0.00181487
-0.00243397
-0.00303912
-0.00362729
-0.00419558
-0.00474119
-0.00526149
-0.00575398
-0.00621626
-0.00664608
-0.00704135
-0.00740011
-0.00772053
-0.00800097
-0.00823987
-0.00843582
-0.00858755
-0.00869397
-0.00875406
-0.00876695
-0.00873188
-0.00864823
-0.0085155
-0.00833329
-0.00810133
-0.00781944
-0.00748753
-0.00710563
-0.00667387
-0.00619249
-0.00566181
-0.0050822
-0.00445415
-0.00377823
-0.0030551
-0.00228548
-0.00147017
-0.000610043
0.000293952
0.00124082
0.00222949
0.00325884
0.00432766
0.00543469
0.00657863
0.00775813
0.00897177
0.0102181
0.0114955
0.0128026
0.0141377
0.0154991
0.0168852
0.0182942
0.0197245
0.0211741
0.0226414
0.0241244
0.0256213
0.0271301
0.0286491
0.0301761
0.0317093
0.0332467
0.0347862
0.036326
0.037864
0.0393982
0.0409266
0.0424471
0.0439578
0.0454567
0.0469417
0.0484109
0.0498623
0.051294
0.052704
0.0540904
0.0554514
0.056785
0.0580896
0.0593633
0.0606043
0.0618111
0.0629819
0.0641152
0.0652095
0.0662631
0.0672749
0.0682434
0.0691673
0.0700455
0.0708768
0.0716603
0.0723949
0.0730797
0.0737142
0.0742975
0.0748291
0.0753086
0.0757356
0.0761099
0.0764313
0.0766999
0.0769158
0.0770792
0.0771906
0.0772504
0.0772593
0.0772181
0.0771277
0.0769892
0.0768038
0.0765728
0.0762979
0.0759806
0.0756228
0.0752265
0.0747937
0.0743267
0.0738279
0.0732999
0.0727453
0.072167
0.0715679
0.070951
0.0703196
0.0696768
0.0690261
0.0683709
0.0677145
0.0670606
0.0664125
0.0657738
0.065148
0.0645384
0.0639482
0.0633807
0.0628386
0.0623245
0.0618427
0.0613973
0.0609635
0.0605166
0.00858687
0.00799929
0.00745503
0.00692071
0.00636067
0.00577882
0.00517973
0.00456533
0.00393786
0.00329992
0.00265422
0.00200364
0.00135106
0.000699448
5.17787e-05
-0.000588955
-0.00121981
-0.00183792
-0.00244044
-0.0030246
-0.00358777
-0.00412739
-0.00464099
-0.00512629
-0.00558103
-0.00600318
-0.00639073
-0.0067419
-0.00705499
-0.00732843
-0.00756075
-0.00775065
-0.00789697
-0.00799865
-0.00805474
-0.0080644
-0.00802697
-0.00794186
-0.00780857
-0.00762676
-0.00739616
-0.00711662
-0.00678807
-0.00641055
-0.0059842
-0.00550926
-0.00498601
-0.00441485
-0.00379626
-0.00313081
-0.00241913
-0.00166193
-0.000859986
-1.41628e-05
0.000874617
0.00180538
0.0027771
0.00378865
0.00483887
0.00592651
0.00705033
0.008209
0.00940111
0.0106252
0.0118799
0.0131636
0.0144748
0.0158118
0.017173
0.0185567
0.0199612
0.0213849
0.0228257
0.0242821
0.0257521
0.0272339
0.0287256
0.0302253
0.0317311
0.0332411
0.0347532
0.0362656
0.0377764
0.0392834
0.0407848
0.0422785
0.0437627
0.0452353
0.0466944
0.048138
0.0495643
0.0509712
0.052357
0.0537197
0.0550575
0.0563686
0.0576512
0.0589035
0.0601239
0.0613107
0.0624623
0.0635772
0.0646538
0.0656906
0.0666864
0.0676397
0.0685495
0.0694144
0.0702333
0.0710053
0.0717294
0.0724047
0.0730306
0.0736064
0.0741314
0.0746053
0.0750277
0.0753983
0.0757171
0.075984
0.0761991
0.0763627
0.0764751
0.0765368
0.0765484
0.0765108
0.0764246
0.076291
0.0761111
0.0758863
0.0756179
0.0753075
0.074957
0.074568
0.0741426
0.073683
0.0731914
0.0726702
0.0721219
0.0715491
0.0709547
0.0703414
0.0697121
0.06907
0.0684181
0.0677595
0.0670975
0.066435
0.0657755
0.0651219
0.0644774
0.063845
0.0632276
0.0626279
0.0620483
0.0614909
0.06096
0.0604596
0.0599581
0.0594254
0.00970393
0.00902745
0.00841233
0.00781974
0.00720719
0.00657858
0.00593848
0.00528847
0.00463034
0.00396627
0.00329869
0.00263002
0.00196287
0.00129983
0.000643573
-3.21105e-06
-0.000637921
-0.00125792
-0.00186062
-0.00244351
-0.00300421
-0.00354035
-0.00404967
-0.00453006
-0.00497947
-0.00539596
-0.00577774
-0.00612311
-0.00643051
-0.00669845
-0.00692558
-0.00711072
-0.00725276
-0.00735071
-0.00740368
-0.00741091
-0.00737177
-0.0072857
-0.00715228
-0.00697118
-0.00674217
-0.00646508
-0.00613988
-0.00576664
-0.00534551
-0.00487671
-0.00436053
-0.00379736
-0.00318769
-0.00253207
-0.00183113
-0.00108556
-0.000296135
0.00053631
0.00141088
0.00232661
0.0032825
0.00427743
0.00531029
0.00637986
0.00748492
0.00862414
0.00979618
0.0109996
0.0122331
0.013495
0.0147839
0.0160981
0.0174362
0.0187963
0.0201769
0.0215763
0.0229926
0.0244242
0.0258692
0.0273258
0.0287922
0.0302665
0.0317468
0.0332313
0.034718
0.036205
0.0376903
0.0391722
0.0406485
0.0421175
0.043577
0.0450253
0.0464604
0.0478804
0.0492834
0.0506675
0.0520309
0.0533717
0.0546881
0.0559783
0.0572406
0.0584733
0.0596747
0.0608431
0.061977
0.0630749
0.0641352
0.0651566
0.0661377
0.0670772
0.0679739
0.0688265
0.0696341
0.0703956
0.07111
0.0717766
0.0723946
0.0729634
0.0734823
0.073951
0.074369
0.0747362
0.0750523
0.0753175
0.0755316
0.0756951
0.0758081
0.0758712
0.0758848
0.0758498
0.075767
0.0756372
0.0754617
0.0752415
0.0749782
0.0746731
0.074328
0.0739445
0.0735246
0.0730702
0.0725834
0.0720666
0.071522
0.0709522
0.0703596
0.069747
0.0691171
0.0684726
0.0678164
0.0671514
0.0664804
0.0658064
0.0651322
0.0644607
0.0637946
0.0631366
0.0624892
0.0618549
0.0612355
0.0606329
0.0600513
0.0594947
0.0589248
0.0583064
0.0108354
0.0100706
0.00938453
0.008733
0.00806684
0.00738999
0.00670716
0.00601954
0.00532852
0.00463598
0.00394402
0.00325467
0.00257027
0.00189311
0.00122556
0.000569981
-7.12602e-05
-0.000695771
-0.00130122
-0.00188538
-0.00244602
-0.00298102
-0.00348831
-0.00396593
-0.00441201
-0.00482475
-0.00520256
-0.00554381
-0.00584705
-0.00611093
-0.0063342
-0.00651577
-0.0066546
-0.00674975
-0.00680045
-0.00680597
-0.00676573
-0.00667922
-0.00654607
-0.00636597
-0.00613871
-0.00586416
-0.00554232
-0.00517327
-0.00475715
-0.00429419
-0.00378469
-0.00322907
-0.00262778
-0.00198138
-0.00129048
-0.000555777
0.000221972
0.00104196
0.00190329
0.00280504
0.00374619
0.00472567
0.00574239
0.00679517
0.00788278
0.00900395
0.0101573
0.0113416
0.0125553
0.013797
0.0150652
0.0163584
0.0176749
0.0190131
0.0203715
0.0217484
0.023142
0.0245506
0.0259724
0.0274057
0.0288487
0.0302994
0.0317562
0.033217
0.0346802
0.0361436
0.0376056
0.0390642
0.0405174
0.0419634
0.0434003
0.0448262
0.0462392
0.0476374
0.049019
0.0503821
0.0517249
0.0530456
0.0543423
0.0556134
0.0568571
0.0580718
0.0592557
0.0604073
0.061525
0.0626074
0.0636529
0.0646602
0.0656278
0.0665546
0.0674394
0.0682809
0.0690781
0.06983
0.0705356
0.0711942
0.071805
0.0723673
0.0728806
0.0733445
0.0737584
0.0741223
0.0744359
0.0746992
0.0749123
0.0750753
0.0751885
0.0752525
0.0752676
0.0752345
0.0751541
0.0750271
0.0748547
0.0746381
0.0743784
0.0740772
0.0737358
0.0733561
0.0729396
0.0724884
0.0720044
0.0714897
0.0709465
0.0703771
0.0697839
0.0691693
0.068536
0.0678863
0.0672231
0.0665488
0.0658661
0.0651777
0.0644861
0.0637939
0.0631036
0.0624176
0.0617379
0.0610668
0.0604058
0.0597563
0.0591228
0.0585091
0.0578708
0.0571671
0.0119744
0.0111221
0.0103652
0.00965438
0.00893382
0.00820764
0.00748065
0.00675374
0.00602797
0.00530494
0.00458636
0.00387408
0.00317009
0.0024764
0.00179509
0.00112828
0.000478108
-0.000153327
-0.000763915
-0.00135162
-0.00191445
-0.00245046
-0.00295777
-0.0034346
-0.00387922
-0.00429004
-0.00466552
-0.00500419
-0.00530473
-0.00556589
-0.00578655
-0.00596565
-0.00610226
-0.00619553
-0.00624473
-0.00624922
-0.00620845
-0.00612198
-0.00598946
-0.00581062
-0.00558527
-0.00531334
-0.00499484
-0.00462986
-0.00421854
-0.00376114
-0.00325796
-0.00270942
-0.00211598
-0.00147818
-0.000796639
-7.20464e-05
0.000694858
0.00150328
0.00235234
0.00324111
0.00416861
0.0051338