/*--------------------------------*- C++ -*----------------------------------*\
  =========                 |
  \\      /  F ield         | OpenFOAM: The Open Source CFD Toolbox
   \\    /   O peration     | Website:  https://openfoam.org
    \\  /    A nd           | Version:  7
     \\/     M anipulation  |
\*---------------------------------------------------------------------------*/
FoamFile
{
    version     2.0;
    format      ascii;
    class       surfaceScalarField;
    location    "0.2125";
    object      phi;
}
// * * * * * * * * * * * * * * * * * * * * * * * * * * * * * * * * * * * * * //

dimensions      [0 3 -1 0 0 0 0];

internalField   nonuniform List<scalar> 
50880
(
6.14661e-12
-6.10293e-12
3.58941e-11
-2.9746e-11
8.06842e-11
-4.47877e-11
1.30173e-10
-4.94917e-11
1.77253e-10
-4.70764e-11
2.16936e-10
-3.96857e-11
2.45807e-10
-2.88669e-11
2.6155e-10
-1.57384e-11
2.6264e-10
-1.09703e-12
2.48137e-10
1.45145e-11
2.17462e-10
3.06709e-11
1.70371e-10
4.70912e-11
1.06822e-10
6.35473e-11
2.69446e-11
7.9867e-11
-6.89814e-11
9.59313e-11
-1.80612e-10
1.11624e-10
-3.07488e-10
1.26879e-10
-4.49111e-10
1.41628e-10
-6.04941e-10
1.55823e-10
-7.74375e-10
1.69436e-10
-9.56809e-10
1.82433e-10
-1.15161e-09
1.94793e-10
-1.35811e-09
2.06505e-10
-1.57566e-09
2.17552e-10
-1.8036e-09
2.27929e-10
-2.04123e-09
2.37634e-10
-2.2879e-09
2.46661e-10
-2.54292e-09
2.55017e-10
-2.80562e-09
2.62701e-10
-3.07534e-09
2.69719e-10
-3.35141e-09
2.7607e-10
-3.63317e-09
2.81767e-10
-3.91998e-09
2.86815e-10
-4.2112e-09
2.9122e-10
-4.5062e-09
2.94995e-10
-4.80435e-09
2.9815e-10
-5.10504e-09
3.00691e-10
-5.40767e-09
3.02631e-10
-5.71165e-09
3.03983e-10
-6.01641e-09
3.04757e-10
-6.32138e-09
3.04962e-10
-6.62599e-09
3.04615e-10
-6.92972e-09
3.03724e-10
-7.23202e-09
3.02304e-10
-7.53238e-09
3.00362e-10
-7.83029e-09
2.97914e-10
-8.12527e-09
2.94974e-10
-8.41683e-09
2.91554e-10
-8.7045e-09
2.87667e-10
-8.98783e-09
2.83328e-10
-9.26637e-09
2.78547e-10
-9.5397e-09
2.73336e-10
-9.80741e-09
2.67707e-10
-1.00691e-08
2.61675e-10
-1.03243e-08
2.55256e-10
-1.05728e-08
2.48461e-10
-1.08141e-08
2.41303e-10
-1.10479e-08
2.33795e-10
-1.12739e-08
2.25951e-10
-1.14916e-08
2.17784e-10
-1.17009e-08
2.09306e-10
-1.19015e-08
2.00531e-10
-1.2093e-08
1.91472e-10
-1.22751e-08
1.82144e-10
-1.24477e-08
1.7256e-10
-1.26104e-08
1.62733e-10
-1.27631e-08
1.52678e-10
-1.29055e-08
1.42408e-10
-1.30374e-08
1.31937e-10
-1.31587e-08
1.21278e-10
-1.32691e-08
1.10444e-10
-1.33686e-08
9.94522e-11
-1.34569e-08
8.83155e-11
-1.3534e-08
7.70481e-11
-1.35996e-08
6.5664e-11
-1.36538e-08
5.4178e-11
-1.36964e-08
4.26049e-11
-1.37274e-08
3.09597e-11
-1.37466e-08
1.92573e-11
-1.37541e-08
7.51262e-12
-1.37499e-08
-4.25923e-12
-1.37338e-08
-1.60432e-11
-1.3706e-08
-2.78233e-11
-1.36664e-08
-3.9583e-11
-1.36151e-08
-5.13059e-11
-1.35521e-08
-6.29767e-11
-1.34775e-08
-7.4581e-11
-1.33914e-08
-8.61026e-11
-1.32939e-08
-9.75239e-11
-1.31851e-08
-1.08828e-10
-1.30651e-08
-1.19999e-10
-1.29341e-08
-1.3102e-10
-1.27922e-08
-1.41875e-10
-1.26396e-08
-1.52547e-10
-1.24766e-08
-1.63019e-10
-1.23034e-08
-1.73272e-10
-1.21201e-08
-1.8329e-10
-1.1927e-08
-1.93058e-10
-1.17244e-08
-2.02557e-10
-1.15127e-08
-2.11771e-10
-1.1292e-08
-2.20682e-10
-1.10627e-08
-2.29274e-10
-1.08252e-08
-2.37528e-10
-1.05798e-08
-2.45428e-10
-1.03268e-08
-2.52958e-10
-1.00667e-08
-2.60101e-10
-9.79987e-09
-2.6684e-10
-9.52671e-09
-2.7316e-10
-9.24766e-09
-2.79045e-10
-8.96319e-09
-2.84477e-10
-8.67375e-09
-2.8944e-10
-8.37983e-09
-2.9392e-10
-8.08193e-09
-2.97901e-10
-7.78056e-09
-3.01371e-10
-7.47624e-09
-3.04313e-10
-7.16953e-09
-3.06714e-10
-6.86097e-09
-3.0856e-10
-6.55113e-09
-3.09838e-10
-6.2406e-09
-3.10535e-10
-5.92996e-09
-3.1064e-10
-5.61982e-09
-3.10142e-10
-5.31079e-09
-3.09029e-10
-5.0035e-09
-3.07291e-10
-4.69858e-09
-3.04919e-10
-4.39667e-09
-3.01905e-10
-4.09843e-09
-2.9824e-10
-3.80451e-09
-2.93919e-10
-3.51557e-09
-2.88934e-10
-3.23229e-09
-2.83281e-10
-2.95534e-09
-2.76956e-10
-2.68538e-09
-2.69956e-10
-2.4231e-09
-2.62282e-10
-2.16917e-09
-2.53932e-10
-1.92426e-09
-2.44908e-10
-1.68904e-09
-2.35216e-10
-1.46418e-09
-2.24862e-10
-1.25032e-09
-2.13853e-10
-1.04812e-09
-2.02202e-10
-8.582e-10
-1.89922e-10
-6.81169e-10
-1.77032e-10
-5.17613e-10
-1.63556e-10
-3.68089e-10
-1.49523e-10
-2.33117e-10
-1.34971e-10
-1.13174e-10
-1.19943e-10
-8.68045e-12
-1.04495e-10
8.00124e-11
-8.86943e-11
1.52638e-10
-7.26262e-11
2.09037e-10
-5.63993e-11
2.49188e-10
-4.01511e-11
2.73246e-10
-2.40581e-11
2.81595e-10
-8.34936e-12
2.74922e-10
6.67256e-12
2.54321e-10
2.06008e-11
2.21442e-10
3.2879e-11
1.78711e-10
4.273e-11
1.29647e-10
4.9065e-11
7.92564e-11
5.03908e-11
3.4604e-11
4.46535e-11
5.34243e-12
2.92629e-11
5.34365e-12
3.04662e-11
-3.65694e-11
1.01427e-10
-1.00712e-10
1.9522e-10
-1.38585e-10
2.95065e-10
-1.49329e-10
3.86536e-10
-1.38552e-10
4.58428e-10
-1.1158e-10
5.023e-10
-7.27385e-11
5.11978e-10
-2.54227e-11
4.83084e-10
2.77944e-11
4.12626e-10
8.496e-11
2.9869e-10
1.44605e-10
1.40199e-10
2.05588e-10
-6.32845e-11
2.67033e-10
-3.11677e-10
3.28268e-10
-6.04509e-10
3.88758e-10
-9.40969e-10
4.48086e-10
-1.32002e-09
5.05925e-10
-1.7404e-09
5.62009e-10
-2.20071e-09
6.16133e-10
-2.6994e-09
6.68132e-10
-3.23485e-09
7.17879e-10
-3.80533e-09
7.65281e-10
-4.40908e-09
8.10255e-10
-5.04428e-09
8.52748e-10
-5.70906e-09
8.92719e-10
-6.40157e-09
9.30143e-10
-7.1199e-09
9.64997e-10
-7.86217e-09
9.97285e-10
-8.62647e-09
1.027e-09
-9.41092e-09
1.05416e-09
-1.02136e-08
1.07878e-09
-1.10328e-08
1.10088e-09
-1.18664e-08
1.12047e-09
-1.27128e-08
1.13759e-09
-1.35701e-08
1.15228e-09
-1.44365e-08
1.16455e-09
-1.53102e-08
1.17445e-09
-1.61896e-08
1.18203e-09
-1.70729e-08
1.18731e-09
-1.79585e-08
1.19034e-09
-1.88447e-08
1.19116e-09
-1.97299e-08
1.18983e-09
-2.06126e-08
1.18637e-09
-2.14911e-08
1.18085e-09
-2.23641e-08
1.17331e-09
-2.323e-08
1.16379e-09
-2.40873e-08
1.15235e-09
-2.49348e-08
1.13902e-09
-2.5771e-08
1.12387e-09
-2.65946e-08
1.10694e-09
-2.74044e-08
1.08829e-09
-2.8199e-08
1.06795e-09
-2.89773e-08
1.04599e-09
-2.9738e-08
1.02245e-09
-3.04802e-08
9.97392e-10
-3.12026e-08
9.70853e-10
-3.19042e-08
9.42891e-10
-3.25839e-08
9.13561e-10
-3.32409e-08
8.82911e-10
-3.38741e-08
8.50992e-10
-3.44826e-08
8.17857e-10
-3.50657e-08
7.83561e-10
-3.56224e-08
7.48156e-10
-3.61519e-08
7.11693e-10
-3.66536e-08
6.74225e-10
-3.71266e-08
6.35807e-10
-3.75705e-08
5.96493e-10
-3.79844e-08
5.56336e-10
-3.83678e-08
5.15391e-10
-3.87203e-08
4.73713e-10
-3.90412e-08
4.31356e-10
-3.93301e-08
3.88376e-10
-3.95866e-08
3.44829e-10
-3.98103e-08
3.0077e-10
-4.00009e-08
2.56259e-10
-4.01581e-08
2.1135e-10
-4.02816e-08
1.66103e-10
-4.03712e-08
1.20575e-10
-4.04268e-08
7.48253e-11
-4.04482e-08
2.89147e-11
-4.04354e-08
-1.70979e-11
-4.03882e-08
-6.31532e-11
-4.03069e-08
-1.0919e-10
-4.01913e-08
-1.55147e-10
-4.00417e-08
-2.0096e-10
-3.98581e-08
-2.46566e-10
-3.96407e-08
-2.91904e-10
-3.93899e-08
-3.3691e-10
-3.91059e-08
-3.81521e-10
-3.87891e-08
-4.25672e-10
-3.84398e-08
-4.69298e-10
-3.80585e-08
-5.12333e-10
-3.76456e-08
-5.54714e-10
-3.72018e-08
-5.96372e-10
-3.67276e-08
-6.37243e-10
-3.62236e-08
-6.77259e-10
-3.56905e-08
-7.16355e-10
-3.51291e-08
-7.54464e-10
-3.45402e-08
-7.91519e-10
-3.39245e-08
-8.27453e-10
-3.3283e-08
-8.62202e-10
-3.26165e-08
-8.95699e-10
-3.19262e-08
-9.27877e-10
-3.12129e-08
-9.58671e-10
-3.04779e-08
-9.88015e-10
-2.97221e-08
-1.01584e-09
-2.89469e-08
-1.0421e-09
-2.81534e-08
-1.06671e-09
-2.73428e-08
-1.08961e-09
-2.65165e-08
-1.11075e-09
-2.56759e-08
-1.13007e-09
-2.48223e-08
-1.1475e-09
-2.39572e-08
-1.16299e-09
-2.30821e-08
-1.17648e-09
-2.21985e-08
-1.18791e-09
-2.1308e-08
-1.19724e-09
-2.04121e-08
-1.20441e-09
-1.95126e-08
-1.20936e-09
-1.86111e-08
-1.21206e-09
-1.77093e-08
-1.21246e-09
-1.68089e-08
-1.21052e-09
-1.59117e-08
-1.20619e-09
-1.50196e-08
-1.19944e-09
-1.41342e-08
-1.19024e-09
-1.32576e-08
-1.17855e-09
-1.23915e-08
-1.16434e-09
-1.15378e-08
-1.1476e-09
-1.06985e-08
-1.12829e-09
-9.87533e-09
-1.10641e-09
-9.07034e-09
-1.08195e-09
-8.28539e-09
-1.0549e-09
-7.52242e-09
-1.02525e-09
-6.78332e-09
-9.9303e-10
-6.06999e-09
-9.58238e-10
-5.38431e-09
-9.20899e-10
-4.72813e-09
-8.81044e-10
-4.10327e-09
-8.38717e-10
-3.5115e-09
-7.93971e-10
-2.95454e-09
-7.46875e-10
-2.43406e-09
-6.97514e-10
-1.95163e-09
-6.45993e-10
-1.50872e-09
-5.9244e-10
-1.10668e-09
-5.37012e-10
-7.4672e-10
-4.79902e-10
-4.29869e-10
-4.21346e-10
-1.56931e-10
-3.61633e-10
7.15612e-11
-3.01118e-10
2.55407e-10
-2.40246e-10
3.94824e-10
-1.7957e-10
4.90555e-10
-1.19789e-10
5.43999e-10
-6.17925e-11
5.57392e-10
-6.71855e-12
5.3404e-10
4.39562e-11
4.78616e-10
8.83052e-11
3.97543e-10
1.23805e-10
2.99432e-10
1.47177e-10
1.95531e-10
1.54293e-10
9.99761e-11
1.4021e-10
2.9234e-11
1.00006e-10
3.45781e-11
4.47576e-11
-8.13244e-11
1.38913e-10
-1.94862e-10
2.55679e-10
-2.55358e-10
3.73613e-10
-2.67262e-10
4.74464e-10
-2.3941e-10
5.43409e-10
-1.80523e-10
5.68768e-10
-9.80981e-11
5.41616e-10
1.7345e-12
4.55334e-10
1.1408e-10
3.05208e-10
2.35101e-10
8.80356e-11
3.61771e-10
-1.98111e-10
4.91731e-10
-5.54184e-10
6.23105e-10
-9.80314e-10
7.54401e-10
-1.476e-09
8.84446e-10
-2.0402e-09
1.0123e-09
-2.67148e-09
1.13719e-09
-3.368e-09
1.25853e-09
-4.1277e-09
1.37583e-09
-4.94828e-09
1.48871e-09
-5.82724e-09
1.59685e-09
-6.76198e-09
1.70001e-09
-7.74974e-09
1.79801e-09
-8.7877e-09
1.89071e-09
-9.87297e-09
1.97798e-09
-1.10026e-08
2.05976e-09
-1.21736e-08
2.13601e-09
-1.3383e-08
2.20669e-09
-1.46278e-08
2.27179e-09
-1.59049e-08
2.33132e-09
-1.72115e-08
2.38531e-09
-1.85444e-08
2.43379e-09
-1.99007e-08
2.47681e-09
-2.12775e-08
2.51442e-09
-2.26719e-08
2.54668e-09
-2.4081e-08
2.57366e-09
-2.5502e-08
2.59544e-09
-2.69321e-08
2.6121e-09
-2.83685e-08
2.62372e-09
-2.98086e-08
2.63039e-09
-3.12496e-08
2.6322e-09
-3.2689e-08
2.62925e-09
-3.41243e-08
2.62164e-09
-3.55529e-08
2.60945e-09
-3.69724e-08
2.59281e-09
-3.83804e-08
2.57181e-09
-3.97746e-08
2.54655e-09
-4.11528e-08
2.51715e-09
-4.25126e-08
2.4837e-09
-4.3852e-08
2.44632e-09
-4.51688e-08
2.40512e-09
-4.64611e-08
2.36021e-09
-4.77268e-08
2.3117e-09
-4.8964e-08
2.25971e-09
-5.0171e-08
2.20433e-09
-5.13458e-08
2.14569e-09
-5.24868e-08
2.08391e-09
-5.35923e-08
2.01908e-09
-5.46608e-08
1.95134e-09
-5.56906e-08
1.88079e-09
-5.66803e-08
1.80754e-09
-5.76284e-08
1.73173e-09
-5.85337e-08
1.65345e-09
-5.93949e-08
1.57283e-09
-6.02106e-08
1.49e-09
-6.09799e-08
1.40505e-09
-6.17015e-08
1.31813e-09
-6.23745e-08
1.22933e-09
-6.29979e-08
1.1388e-09
-6.35708e-08
1.04664e-09
-6.40925e-08
9.52979e-10
-6.4562e-08
8.57943e-10
-6.49789e-08
7.61653e-10
-6.53423e-08
6.64235e-10
-6.56519e-08
5.65816e-10
-6.5907e-08
4.66523e-10
-6.61074e-08
3.66483e-10
-6.62527e-08
2.65826e-10
-6.63425e-08
1.64683e-10
-6.63768e-08
6.31866e-11
-6.63554e-08
-3.85309e-11
-6.62782e-08
-1.40335e-10
-6.61453e-08
-2.42092e-10
-6.59568e-08
-3.43664e-10
-6.57128e-08
-4.44914e-10
-6.54137e-08
-5.45704e-10
-6.50597e-08
-6.45894e-10
-6.46513e-08
-7.45343e-10
-6.41889e-08
-8.43909e-10
-6.36731e-08
-9.41451e-10
-6.31046e-08
-1.03783e-09
-6.2484e-08
-1.13289e-09
-6.18122e-08
-1.2265e-09
-6.10901e-08
-1.3185e-09
-6.03186e-08
-1.40876e-09
-5.94987e-08
-1.49712e-09
-5.86316e-08
-1.58344e-09
-5.77185e-08
-1.66757e-09
-5.67607e-08
-1.74937e-09
-5.57594e-08
-1.82869e-09
-5.47163e-08
-1.90538e-09
-5.36327e-08
-1.97929e-09
-5.25102e-08
-2.05029e-09
-5.13507e-08
-2.11823e-09
-5.01557e-08
-2.18296e-09
-4.89272e-08
-2.24435e-09
-4.76671e-08
-2.30225e-09
-4.63773e-08
-2.35652e-09
-4.50598e-08
-2.40703e-09
-4.3717e-08
-2.45364e-09
-4.23508e-08
-2.49622e-09
-4.09637e-08
-2.53464e-09
-3.95579e-08
-2.56878e-09
-3.81359e-08
-2.5985e-09
-3.67001e-08
-2.6237e-09
-3.5253e-08
-2.64426e-09
-3.37974e-08
-2.66006e-09
-3.23358e-08
-2.671e-09
-3.08709e-08
-2.67697e-09
-2.94054e-08
-2.67788e-09
-2.79423e-08
-2.67364e-09
-2.64844e-08
-2.66415e-09
-2.50345e-08
-2.64935e-09
-2.35955e-08
-2.62917e-09
-2.21705e-08
-2.60352e-09
-2.07625e-08
-2.57237e-09
-1.93744e-08
-2.53566e-09
-1.80094e-08
-2.49335e-09
-1.66704e-08
-2.44542e-09
-1.53605e-08
-2.39184e-09
-1.40828e-08
-2.33262e-09
-1.28403e-08
-2.26776e-09
-1.1636e-08
-2.19729e-09
-1.0473e-08
-2.12125e-09
-9.35418e-09
-2.03969e-09
-8.28252e-09
-1.95271e-09
-7.26084e-09
-1.8604e-09
-6.29192e-09
-1.76289e-09
-5.37843e-09
-1.66036e-09
-4.52292e-09
-1.55302e-09
-3.72781e-09
-1.44111e-09
-2.99532e-09
-1.32493e-09
-2.32747e-09
-1.20486e-09
-1.72603e-09
-1.08134e-09
-1.19245e-09
-9.54927e-10
-7.27817e-10
-8.26268e-10
-3.3276e-10
-6.96174e-10
-7.36639e-12
-5.6564e-10
2.4895e-10
-4.35888e-10
4.37594e-10
-3.08435e-10
5.60978e-10
-1.85177e-10
6.22749e-10
-6.84911e-11
6.28079e-10
3.86265e-11
5.83992e-10
1.32392e-10
4.99754e-10
2.08044e-10
3.87263e-10
2.5967e-10
2.61399e-10
2.80157e-10
1.40181e-10
2.61429e-10
4.46079e-11
1.95581e-10
7.91859e-11
4.95425e-11
-1.30861e-10
1.49783e-10
-2.95103e-10
2.68042e-10
-3.73611e-10
3.79202e-10
-3.78409e-10
4.62494e-10
-3.22702e-10
5.00896e-10
-2.18928e-10
4.80732e-10
-7.7929e-11
3.91242e-10
9.12176e-11
2.24233e-10
2.81086e-10
-2.63342e-11
4.85665e-10
-3.64675e-10
7.00115e-10
-7.93489e-10
9.20549e-10
-1.31422e-09
1.14384e-09
-1.92728e-09
1.36746e-09
-2.63221e-09
1.58938e-09
-3.42786e-09
1.80794e-09
-4.31249e-09
2.02182e-09
-5.28389e-09
2.22994e-09
-6.33947e-09
2.43141e-09
-7.47628e-09
2.62552e-09
-8.69115e-09
2.81172e-09
-9.98068e-09
2.98954e-09
-1.13413e-08
3.15863e-09
-1.27693e-08
3.3187e-09
-1.42609e-08
3.46954e-09
-1.58121e-08
3.611e-09
-1.74191e-08
3.74297e-09
-1.90778e-08
3.86538e-09
-2.07842e-08
3.9782e-09
-2.25343e-08
4.08143e-09
-2.43241e-08
4.1751e-09
-2.61495e-08
4.25924e-09
-2.80066e-08
4.33392e-09
-2.98915e-08
4.39924e-09
-3.18001e-08
4.45528e-09
-3.37286e-08
4.50216e-09
-3.56731e-08
4.54e-09
-3.763e-08
4.56893e-09
-3.95953e-08
4.5891e-09
-4.15656e-08
4.60064e-09
-4.35371e-08
4.60373e-09
-4.55064e-08
4.59851e-09
-4.74699e-08
4.58515e-09
-4.94243e-08
4.56383e-09
-5.13662e-08
4.53472e-09
-5.32923e-08
4.49799e-09
-5.51996e-08
4.45383e-09
-5.70849e-08
4.40242e-09
-5.89452e-08
4.34395e-09
-6.07774e-08
4.2786e-09
-6.25789e-08
4.20657e-09
-6.43467e-08
4.12804e-09
-6.60782e-08
4.04322e-09
-6.77708e-08
3.95229e-09
-6.94219e-08
3.85544e-09
-7.10291e-08
3.75289e-09
-7.259e-08
3.64482e-09
-7.41024e-08
3.53143e-09
-7.5564e-08
3.41293e-09
-7.69727e-08
3.28951e-09
-7.83265e-08
3.16138e-09
-7.96235e-08
3.02873e-09
-8.08619e-08
2.89179e-09
-8.20398e-08
2.75074e-09
-8.31556e-08
2.6058e-09
-8.42077e-08
2.45718e-09
-8.51947e-08
2.30508e-09
-8.6115e-08
2.14972e-09
-8.69675e-08
1.99131e-09
-8.7751e-08
1.83005e-09
-8.84641e-08
1.66617e-09
-8.91061e-08
1.49988e-09
-8.96758e-08
1.3314e-09
-9.01726e-08
1.16095e-09
-9.05955e-08
9.88755e-10
-9.0944e-08
8.1503e-10
-9.12175e-08
6.40006e-10
-9.14156e-08
4.63908e-10
-9.15379e-08
2.86967e-10
-9.15841e-08
1.09412e-10
-9.15541e-08
-6.85225e-11
-9.14479e-08
-2.46602e-10
-9.12654e-08
-4.24588e-10
-9.10068e-08
-6.02243e-10
-9.06724e-08
-7.79325e-10
-9.02625e-08
-9.55592e-10
-8.97776e-08
-1.1308e-09
-8.92182e-08
-1.3047e-09
-8.85851e-08
-1.47705e-09
-8.78789e-08
-1.64759e-09
-8.71007e-08
-1.81609e-09
-8.62513e-08
-1.98228e-09
-8.53319e-08
-2.14591e-09
-8.43437e-08
-2.30672e-09
-8.32879e-08
-2.46447e-09
-8.21662e-08
-2.6189e-09
-8.09799e-08
-2.76974e-09
-7.97307e-08
-2.91676e-09
-7.84204e-08
-3.05968e-09
-7.70508e-08
-3.19825e-09
-7.56239e-08
-3.33223e-09
-7.41419e-08
-3.46135e-09
-7.26068e-08
-3.58536e-09
-7.1021e-08
-3.70402e-09
-6.93869e-08
-3.81707e-09
-6.7707e-08
-3.92426e-09
-6.59839e-08
-4.02536e-09
-6.42203e-08
-4.12012e-09
-6.2419e-08
-4.2083e-09
-6.0583e-08
-4.28968e-09
-5.87152e-08
-4.36401e-09
-5.68188e-08
-4.43109e-09
-5.48968e-08
-4.49069e-09
-5.29527e-08
-4.5426e-09
-5.09898e-08
-4.58661e-09
-4.90116e-08
-4.62252e-09
-4.70215e-08
-4.65014e-09
-4.50232e-08
-4.6693e-09
-4.30204e-08
-4.6798e-09
-4.10167e-08
-4.6815e-09
-3.90162e-08
-4.67422e-09
-3.70225e-08
-4.65784e-09
-3.50396e-08
-4.63222e-09
-3.30715e-08
-4.59723e-09
-3.11223e-08
-4.55278e-09
-2.91959e-08
-4.49876e-09
-2.72964e-08
-4.43511e-09
-2.5428e-08
-4.36177e-09
-2.35948e-08
-4.27869e-09
-2.18007e-08
-4.18586e-09
-2.00501e-08
-4.08328e-09
-1.83469e-08
-3.97097e-09
-1.66952e-08
-3.849e-09
-1.5099e-08
-3.71746e-09
-1.35622e-08
-3.57645e-09
-1.20888e-08
-3.42615e-09
-1.06824e-08
-3.26674e-09
-9.34679e-09
-3.0985e-09
-8.08542e-09
-2.92174e-09
-6.90161e-09
-2.73683e-09
-5.79847e-09
-2.54424e-09
-4.77887e-09
-2.34453e-09
-3.84536e-09
-2.13838e-09
-3.00012e-09
-1.92658e-09
-2.24492e-09
-1.71012e-09
-1.58102e-09
-1.49017e-09
-1.00905e-09
-1.26815e-09
-5.28908e-10
-1.04578e-09
-1.39631e-10
-8.25164e-10
1.60809e-10
-6.08874e-10
3.75696e-10
-4.00063e-10
5.0982e-10
-2.02615e-10
5.69765e-10
-2.13181e-11
5.64228e-10
1.3793e-10
5.0436e-10
2.67911e-10
4.04124e-10
3.59906e-10
2.80637e-10
4.03645e-10
1.54504e-10
3.87563e-10
5.03977e-11
2.99688e-10
1.29584e-10
4.72709e-11
-1.78143e-10
1.39549e-10
-3.8738e-10
2.41323e-10
-4.75393e-10
3.25269e-10
-4.62364e-10
3.69074e-10
-3.66503e-10
3.54413e-10
-2.04268e-10
2.66416e-10
1.00689e-11
9.31999e-11
2.64427e-10
-1.7446e-10
5.48748e-10
-5.43523e-10
8.54723e-10
-1.01895e-09
1.17555e-09
-1.60405e-09
1.50564e-09
-2.30066e-09
1.84045e-09
-3.10944e-09
2.17624e-09
-4.03002e-09
2.50996e-09
-5.06119e-09
2.83911e-09
-6.20101e-09
3.16165e-09
-7.44697e-09
3.47589e-09
-8.79602e-09
3.78046e-09
-1.02447e-08
4.07425e-09
-1.17894e-08
4.35634e-09
-1.34258e-08
4.62599e-09
-1.51498e-08
4.88263e-09
-1.69569e-08
5.12577e-09
-1.88424e-08
5.35507e-09
-2.08016e-08
5.57025e-09
-2.28298e-08
5.77111e-09
-2.49219e-08
5.95753e-09
-2.70732e-08
6.12943e-09
-2.92785e-08
6.28679e-09
-3.15331e-08
6.42962e-09
-3.38318e-08
6.55797e-09
-3.61698e-08
6.67193e-09
-3.85422e-08
6.77161e-09
-4.0944e-08
6.85714e-09
-4.33706e-08
6.92869e-09
-4.5817e-08
6.98642e-09
-4.82786e-08
7.03052e-09
-5.07507e-08
7.06122e-09
-5.32287e-08
7.07871e-09
-5.57083e-08
7.08324e-09
-5.81848e-08
7.07504e-09
-6.0654e-08
7.05436e-09
-6.31116e-08
7.02146e-09
-6.55535e-08
6.9766e-09
-6.79756e-08
6.92004e-09
-7.03738e-08
6.85207e-09
-7.27443e-08
6.77296e-09
-7.50834e-08
6.68299e-09
-7.73872e-08
6.58244e-09
-7.96523e-08
6.47162e-09
-8.1875e-08
6.35081e-09
-8.40521e-08
6.2203e-09
-8.61802e-08
6.0804e-09
-8.82562e-08
5.9314e-09
-9.02769e-08
5.77361e-09
-9.22394e-08
5.60732e-09
-9.41408e-08
5.43285e-09
-9.59784e-08
5.2505e-09
-9.77495e-08
5.06058e-09
-9.94515e-08
4.86341e-09
-1.01082e-07
4.65929e-09
-1.02639e-07
4.44854e-09
-1.0412e-07
4.23148e-09
-1.05522e-07
4.00843e-09
-1.06845e-07
3.7797e-09
-1.08085e-07
3.54563e-09
-1.09242e-07
3.30653e-09
-1.10313e-07
3.06273e-09
-1.11298e-07
2.81456e-09
-1.12194e-07
2.56235e-09
-1.13001e-07
2.30644e-09
-1.13716e-07
2.04716e-09
-1.1434e-07
1.78485e-09
-1.14871e-07
1.51986e-09
-1.15309e-07
1.25252e-09
-1.15652e-07
9.83191e-10
-1.159e-07
7.1222e-10
-1.16053e-07
4.39959e-10
-1.16111e-07
1.66764e-10
-1.16072e-07
-1.07005e-10
-1.15938e-07
-3.80985e-10
-1.15708e-07
-6.54812e-10
-1.15382e-07
-9.28115e-10
-1.14961e-07
-1.20052e-09
-1.14445e-07
-1.47167e-09
-1.13834e-07
-1.74117e-09
-1.1313e-07
-2.00864e-09
-1.12334e-07
-2.27371e-09
-1.11445e-07
-2.536e-09
-1.10466e-07
-2.79511e-09
-1.09398e-07
-3.05066e-09
-1.08241e-07
-3.30226e-09
-1.06999e-07
-3.54953e-09
-1.05671e-07
-3.79206e-09
-1.0426e-07
-4.02946e-09
-1.02769e-07
-4.26135e-09
-1.01198e-07
-4.48733e-09
-9.95509e-08
-4.707e-09
-9.78292e-08
-4.91999e-09
-9.60355e-08
-5.12589e-09
-9.41726e-08
-5.32432e-09
-9.22431e-08
-5.51488e-09
-9.02499e-08
-5.69721e-09
-8.8196e-08
-5.87091e-09
-8.60847e-08
-6.03561e-09
-8.39191e-08
-6.19093e-09
-8.17027e-08
-6.33652e-09
-7.9439e-08
-6.472e-09
-7.71317e-08
-6.59702e-09
-7.47844e-08
-6.71124e-09
-7.24012e-08
-6.81431e-09
-6.9986e-08
-6.9059e-09
-6.75429e-08
-6.98569e-09
-6.50762e-08
-7.05336e-09
-6.25901e-08
-7.10862e-09
-6.0089e-08
-7.15118e-09
-5.75776e-08
-7.18076e-09
-5.50603e-08
-7.19709e-09
-5.25418e-08
-7.19993e-09
-5.0027e-08
-7.18905e-09
-4.75206e-08
-7.16424e-09
-4.50275e-08
-7.1253e-09
-4.25527e-08
-7.07205e-09
-4.01012e-08
-7.00434e-09
-3.76779e-08
-6.92204e-09
-3.52879e-08
-6.82505e-09
-3.29364e-08
-6.71329e-09
-3.06284e-08
-6.5867e-09
-2.8369e-08
-6.44528e-09
-2.61632e-08
-6.28905e-09
-2.40161e-08
-6.11807e-09
-2.19327e-08
-5.93244e-09
-1.99178e-08
-5.73231e-09
-1.79764e-08
-5.51789e-09
-1.61131e-08
-5.28945e-09
-1.43325e-08
-5.04733e-09
-1.26391e-08
-4.79195e-09
-1.1037e-08
-4.52382e-09
-9.53024e-09
-4.24356e-09
-8.12258e-09
-3.95191e-09
-6.81736e-09
-3.64975e-09
-5.61757e-09
-3.33816e-09
-4.52575e-09
-3.0184e-09
-3.54389e-09
-2.69198e-09
-2.67334e-09
-2.36072e-09
-1.91471e-09
-2.02678e-09
-1.26772e-09
-1.69277e-09
-7.31055e-10
-1.36183e-09
-3.02177e-10
-1.03775e-09
2.2879e-11
-7.25118e-10
2.49751e-10
-4.29485e-10
3.86014e-10
-1.57582e-10
4.41478e-10
8.24663e-11
4.28491e-10
2.80899e-10
3.62279e-10
4.26119e-10
2.61339e-10
5.04585e-10
1.47967e-10
5.00937e-10
4.92264e-11
3.98427e-10
1.7881e-10
4.01475e-11
-2.18284e-10
1.13439e-10
-4.60681e-10
1.84149e-10
-5.46094e-10
2.2416e-10
-5.02374e-10
2.10485e-10
-3.52831e-10
1.2421e-10
-1.17991e-10
-5.01352e-11
1.84418e-10
-3.25025e-10
5.3932e-10
-7.10296e-10
9.34012e-10
-1.21344e-09
1.35787e-09
-1.83994e-09
1.80204e-09
-2.59346e-09
2.25917e-09
-3.47617e-09
2.72316e-09
-4.4889e-09
3.18897e-09
-5.63135e-09
3.6524e-09
-6.90223e-09
4.11e-09
-8.29948e-09
4.55889e-09
-9.82029e-09
4.9967e-09
-1.14613e-08
5.42148e-09
-1.32187e-08
5.8316e-09
-1.50881e-08
6.22575e-09
-1.70649e-08
6.60284e-09
-1.91443e-08
6.96199e-09
-2.1321e-08
7.30251e-09
-2.35898e-08
7.62384e-09
-2.59451e-08
7.92557e-09
-2.83814e-08
8.20738e-09
-3.08929e-08
8.46905e-09
-3.34739e-08
8.71045e-09
-3.61186e-08
8.9315e-09
-3.88212e-08
9.13221e-09
-4.15759e-08
9.31261e-09
-4.43767e-08
9.47282e-09
-4.72181e-08
9.61295e-09
-5.00941e-08
9.73319e-09
-5.29992e-08
9.83374e-09
-5.59276e-08
9.91482e-09
-5.88737e-08
9.9767e-09
-6.18322e-08
1.00197e-08
-6.47974e-08
1.0044e-08
-6.77642e-08
1.005e-08
-7.07272e-08
1.0038e-08
-7.36812e-08
1.00084e-08
-7.66212e-08
9.96148e-09
-7.95423e-08
9.89765e-09
-8.24395e-08
9.81727e-09
-8.53081e-08
9.72072e-09
-8.81436e-08
9.60838e-09
-9.09412e-08
9.48067e-09
-9.36968e-08
9.33797e-09
-9.64058e-08
9.18069e-09
-9.90643e-08
9.00926e-09
-1.01668e-07
8.82407e-09
-1.04213e-07
8.62555e-09
-1.06696e-07
8.41414e-09
-1.09113e-07
8.19024e-09
-1.1146e-07
7.95429e-09
-1.13733e-07
7.70673e-09
-1.15931e-07
7.44798e-09
-1.18049e-07
7.1785e-09
-1.20084e-07
6.89871e-09
-1.22034e-07
6.60907e-09
-1.23895e-07
6.31001e-09
-1.25666e-07
6.002e-09
-1.27343e-07
5.68549e-09
-1.28924e-07
5.36092e-09
-1.30407e-07
5.02876e-09
-1.3179e-07
4.68947e-09
-1.33071e-07
4.34351e-09
-1.34248e-07
3.99136e-09
-1.35319e-07
3.63347e-09
-1.36283e-07
3.27034e-09
-1.37138e-07
2.90244e-09
-1.37883e-07
2.53024e-09
-1.38518e-07
2.15425e-09
-1.3904e-07
1.77493e-09
-1.3945e-07
1.3928e-09
-1.39746e-07
1.00835e-09
-1.39928e-07
6.22087e-10
-1.39996e-07
2.34509e-10
-1.39949e-07
-1.5387e-10
-1.39788e-07
-5.42534e-10
-1.39511e-07
-9.30964e-10
-1.39121e-07
-1.31864e-09
-1.38616e-07
-1.70503e-09
-1.37998e-07
-2.0896e-09
-1.37268e-07
-2.47182e-09
-1.36425e-07
-2.85116e-09
-1.35472e-07
-3.22707e-09
-1.34409e-07
-3.59901e-09
-1.33238e-07
-3.96643e-09
-1.31959e-07
-4.32879e-09
-1.30576e-07
-4.68552e-09
-1.2909e-07
-5.03608e-09
-1.27502e-07
-5.37991e-09
-1.25815e-07
-5.71647e-09
-1.24031e-07
-6.04518e-09
-1.22153e-07
-6.3655e-09
-1.20183e-07
-6.67687e-09
-1.18124e-07
-6.97874e-09
-1.15979e-07
-7.27056e-09
-1.13752e-07
-7.55177e-09
-1.11445e-07
-7.82184e-09
-1.09062e-07
-8.08021e-09
-1.06607e-07
-8.32636e-09
-1.04082e-07
-8.55975e-09
-1.01493e-07
-8.77986e-09
-9.88438e-08
-8.98616e-09
-9.61377e-08
-9.17816e-09
-9.33794e-08
-9.35534e-09
-9.05734e-08
-9.51723e-09
-8.77243e-08
-9.66334e-09
-8.4837e-08
-9.79321e-09
-8.19163e-08
-9.90639e-09
-7.89672e-08
-1.00024e-08
-7.59949e-08
-1.00809e-08
-7.30046e-08
-1.01415e-08
-7.00016e-08
-1.01837e-08
-6.69915e-08
-1.02072e-08
-6.39798e-08
-1.02117e-08
-6.0972e-08
-1.01968e-08
-5.7974e-08
-1.01623e-08
-5.49915e-08
-1.01078e-08
-5.20304e-08
-1.00332e-08
-4.90965e-08
-9.9382e-09
-4.61959e-08
-9.8227e-09
-4.33344e-08
-9.68653e-09
-4.05181e-08
-9.5296e-09
-3.77529e-08
-9.35187e-09
-3.50449e-08
-9.15332e-09
-3.23999e-08
-8.93402e-09
-2.98239e-08
-8.69407e-09
-2.73227e-08
-8.43364e-09
-2.4902e-08
-8.15297e-09
-2.25675e-08
-7.85238e-09
-2.03247e-08
-7.53229e-09
-1.81788e-08
-7.19321e-09
-1.6135e-08
-6.83575e-09
-1.41981e-08
-6.46069e-09
-1.23728e-08
-6.06892e-09
-1.06631e-08
-5.66154e-09
-9.07307e-09
-5.23983e-09
-7.60591e-09
-4.80532e-09
-6.26448e-09
-4.35983e-09
-5.05095e-09
-3.90551e-09
-3.96676e-09
-3.44491e-09
-3.01249e-09
-2.98105e-09
-2.18771e-09
-2.51755e-09
-1.49085e-09
-2.05869e-09
-9.18993e-10
-1.60961e-09
-4.67696e-10
-1.17641e-09
-1.30755e-10
-7.66426e-10
1.00041e-10
-3.88378e-10
2.35168e-10
-5.26619e-11
2.87657e-10
2.2841e-10
2.73417e-10
4.40357e-10
2.11674e-10
5.66329e-10
1.25561e-10
5.8705e-10
4.31637e-11
4.80824e-10
2.21973e-10
2.9683e-11
-2.47965e-10
7.57317e-11
-5.06724e-10
1.0389e-10
-5.74262e-10
8.65052e-11
-4.84984e-10
7.00337e-13
-2.67036e-10
-1.72434e-10
5.51418e-11
-4.48476e-10
4.60464e-10
-8.40082e-10
9.30925e-10
-1.35731e-09
1.45124e-09
-2.00791e-09
2.00848e-09
-2.79761e-09
2.59174e-09
-3.7303e-09
3.19186e-09
-4.80829e-09
3.80115e-09
-6.0325e-09
4.41317e-09
-7.40264e-09
5.02254e-09
-8.91737e-09
5.62473e-09
-1.05745e-08
6.21598e-09
-1.23709e-08
6.79314e-09
-1.4303e-08
7.35358e-09
-1.63665e-08
7.89513e-09
-1.85568e-08
8.41599e-09
-2.08686e-08
8.91466e-09
-2.32965e-08
9.38993e-09
-2.58349e-08
9.84083e-09
-2.84776e-08
1.02666e-08
-3.12186e-08
1.06665e-08
-3.40515e-08
1.10403e-08
-3.69699e-08
1.13875e-08
-3.99673e-08
1.17079e-08
-4.30371e-08
1.20013e-08
-4.61728e-08
1.22679e-08
-4.93676e-08
1.25075e-08
-5.26151e-08
1.27203e-08
-5.59086e-08
1.29064e-08
-5.92414e-08
1.30661e-08
-6.26072e-08
1.31995e-08
-6.59994e-08
1.3307e-08
-6.94117e-08
1.3389e-08
-7.28377e-08
1.34457e-08
-7.62713e-08
1.34775e-08
-7.97061e-08
1.34849e-08
-8.31363e-08
1.34682e-08
-8.65559e-08
1.3428e-08
-8.99591e-08
1.33646e-08
-9.334e-08
1.32786e-08
-9.66933e-08
1.31705e-08
-1.00013e-07
1.30407e-08
-1.03295e-07
1.28898e-08
-1.06532e-07
1.27183e-08
-1.09721e-07
1.25267e-08
-1.12856e-07
1.23156e-08
-1.15932e-07
1.20854e-08
-1.18945e-07
1.18369e-08
-1.2189e-07
1.15705e-08
-1.24762e-07
1.12868e-08
-1.27559e-07
1.09863e-08
-1.30274e-07
1.06697e-08
-1.32905e-07
1.03375e-08
-1.35447e-07
9.99033e-09
-1.37897e-07
9.62873e-09
-1.40252e-07
9.2533e-09
-1.42508e-07
8.86465e-09
-1.44661e-07
8.46338e-09
-1.46709e-07
8.05008e-09
-1.48649e-07
7.62538e-09
-1.50478e-07
7.18987e-09
-1.52193e-07
6.74418e-09
-1.53793e-07
6.28892e-09
-1.55274e-07
5.82472e-09
-1.56635e-07
5.35222e-09
-1.57873e-07
4.87203e-09
-1.58988e-07
4.38481e-09
-1.59977e-07
3.8912e-09
-1.60838e-07
3.39184e-09
-1.61571e-07
2.88738e-09
-1.62175e-07
2.3785e-09
-1.62648e-07
1.86584e-09
-1.6299e-07
1.35009e-09
-1.63199e-07
8.31917e-10
-1.63277e-07
3.12e-10
-1.63222e-07
-2.08972e-10
-1.63034e-07
-7.30308e-10
-1.62714e-07
-1.25131e-09
-1.62261e-07
-1.77128e-09
-1.61677e-07
-2.28951e-09
-1.60961e-07
-2.80528e-09
-1.60115e-07
-3.31788e-09
-1.59139e-07
-3.82659e-09
-1.58036e-07
-4.33068e-09
-1.56805e-07
-4.82942e-09
-1.5545e-07
-5.32208e-09
-1.53971e-07
-5.80792e-09
-1.5237e-07
-6.28621e-09
-1.5065e-07
-6.7562e-09
-1.48813e-07
-7.21715e-09
-1.46861e-07
-7.66832e-09
-1.44797e-07
-8.10897e-09
-1.42624e-07
-8.53835e-09
-1.40345e-07
-8.95571e-09
-1.37964e-07
-9.36033e-09
-1.35483e-07
-9.75146e-09
-1.32906e-07
-1.01284e-08
-1.30238e-07
-1.04903e-08
-1.27481e-07
-1.08366e-08
-1.24641e-07
-1.11665e-08
-1.21722e-07
-1.14793e-08
-1.18727e-07
-1.17743e-08
-1.15662e-07
-1.20509e-08
-1.12532e-07
-1.23082e-08
-1.09342e-07
-1.25458e-08
-1.06096e-07
-1.27628e-08
-1.02801e-07
-1.29588e-08
-9.9461e-08
-1.3133e-08
-9.60825e-08
-1.32849e-08
-9.2671e-08
-1.3414e-08
-8.92324e-08
-1.35195e-08
-8.57728e-08
-1.36011e-08
-8.22983e-08
-1.36582e-08
-7.88152e-08
-1.36903e-08
-7.53298e-08
-1.3697e-08
-7.18487e-08
-1.36779e-08
-6.83784e-08
-1.36326e-08
-6.49255e-08
-1.35607e-08
-6.14966e-08
-1.3462e-08
-5.80987e-08
-1.33362e-08
-5.47383e-08
-1.3183e-08
-5.14225e-08
-1.30024e-08
-4.81579e-08
-1.27942e-08
-4.49514e-08
-1.25584e-08
-4.18098e-08
-1.22949e-08
-3.87398e-08
-1.2004e-08
-3.57482e-08
-1.16857e-08
-3.28416e-08
-1.13403e-08
-3.00264e-08
-1.09682e-08
-2.7309e-08
-1.05698e-08
-2.46955e-08
-1.01457e-08
-2.2192e-08
-9.69671e-09
-1.98042e-08
-9.2236e-09
-1.75374e-08
-8.72746e-09
-1.53968e-08
-8.20952e-09
-1.33871e-08
-7.67129e-09
-1.15124e-08
-7.11452e-09
-9.77643e-09
-6.54126e-09
-8.18229e-09
-5.95397e-09
-6.7323e-09
-5.3555e-09
-5.42798e-09
-4.74923e-09
-4.26991e-09
-4.13912e-09
-3.25759e-09
-3.52987e-09
-2.38927e-09
-2.92701e-09
-1.66183e-09
-2.33705e-09
-1.07053e-09
-1.76771e-09
-6.08853e-10
-1.22811e-09
-2.68254e-10
-7.28977e-10
-3.79492e-11
-2.82967e-10
9.53613e-11
9.50977e-11
1.47807e-10
3.87909e-10
1.38762e-10
5.75372e-10
9.14242e-11
6.34386e-10
3.37048e-11
5.38543e-10
2.55676e-10
1.69732e-11
-2.64938e-10
2.97162e-11
-5.1947e-10
6.53516e-12
-5.51076e-10
-7.88907e-11
-3.99553e-10
-2.48611e-10
-9.73142e-11
-5.21035e-10
3.27571e-10
-9.11432e-10
8.50855e-10
-1.43227e-09
1.45176e-09
-2.09354e-09
2.11251e-09
-2.90298e-09
2.81792e-09
-3.86633e-09
3.5551e-09
-4.98754e-09
4.31306e-09
-6.26892e-09
5.08253e-09
-7.71138e-09
5.85564e-09
-9.31459e-09
6.62575e-09
-1.10771e-08
7.38724e-09
-1.29965e-08
8.13539e-09
-1.50696e-08
8.8662e-09
-1.72923e-08
9.57634e-09
-1.96602e-08
1.0263e-08
-2.21681e-08
1.09239e-08
-2.48104e-08
1.1557e-08
-2.75812e-08
1.21607e-08
-3.04741e-08
1.27338e-08
-3.34827e-08
1.32752e-08
-3.66002e-08
1.3784e-08
-3.98196e-08
1.42597e-08
-4.31339e-08
1.47017e-08
-4.65358e-08
1.51097e-08
-5.0018e-08
1.54836e-08
-5.35733e-08
1.58232e-08
-5.71943e-08
1.61285e-08
-6.08736e-08
1.63996e-08
-6.46039e-08
1.66367e-08
-6.83778e-08
1.684e-08
-7.21881e-08
1.70098e-08
-7.60276e-08
1.71465e-08
-7.98891e-08
1.72505e-08
-8.37655e-08
1.73221e-08
-8.76499e-08
1.73619e-08
-9.15354e-08
1.73703e-08
-9.54151e-08
1.7348e-08
-9.92825e-08
1.72954e-08
-1.03131e-07
1.72131e-08
-1.06954e-07
1.71017e-08
-1.10746e-07
1.6962e-08
-1.14499e-07
1.67944e-08
-1.18209e-07
1.65996e-08
-1.21869e-07
1.63784e-08
-1.25474e-07
1.61314e-08