/*--------------------------------*- C++ -*----------------------------------*\
  =========                 |
  \\      /  F ield         | OpenFOAM: The Open Source CFD Toolbox
   \\    /   O peration     | Website:  https://openfoam.org
    \\  /    A nd           | Version:  7
     \\/     M anipulation  |
\*---------------------------------------------------------------------------*/
FoamFile
{
    version     2.0;
    format      ascii;
    class       volScalarField;
    location    "0.1375";
    object      p;
}
// * * * * * * * * * * * * * * * * * * * * * * * * * * * * * * * * * * * * * //

dimensions      [0 2 -2 0 0 0 0];

internalField   nonuniform List<scalar> 
25600
(
2.67073e-07
0.000120943
0.000161816
6.07959e-05
-0.000190079
-0.00058349
-0.001107
-0.00174532
-0.00248315
-0.00330543
-0.00419778
-0.00514679
-0.00613957
-0.00716444
-0.0082109
-0.00926937
-0.0103308
-0.011387
-0.0124303
-0.0134537
-0.014451
-0.0154163
-0.0163445
-0.0172306
-0.0180704
-0.0188599
-0.019596
-0.0202752
-0.0208943
-0.0214508
-0.0219425
-0.0223674
-0.0227239
-0.0230102
-0.0232252
-0.0233679
-0.0234375
-0.0234333
-0.0233547
-0.0232015
-0.0229737
-0.0226713
-0.0222944
-0.0218434
-0.0213186
-0.0207208
-0.0200505
-0.0193086
-0.018496
-0.0176137
-0.016663
-0.015645
-0.0145611
-0.0134127
-0.0122012
-0.0109284
-0.00959606
-0.00820584
-0.00675949
-0.00525887
-0.00370598
-0.00210288
-0.000451719
0.00124538
0.00298626
0.00476874
0.00659052
0.00844925
0.0103425
0.0122677
0.0142225
0.0162044
0.0182109
0.0202393
0.0222871
0.0243514
0.0264296
0.0285191
0.0306172
0.0327212
0.0348282
0.0369353
0.0390399
0.0411391
0.0432302
0.0453104
0.0473767
0.0494265
0.0514568
0.0534649
0.0554479
0.0574033
0.0593282
0.06122
0.0630761
0.0648938
0.0666705
0.0684038
0.070091
0.0717297
0.0733174
0.0748519
0.076331
0.0777525
0.0791143
0.0804143
0.0816505
0.082821
0.0839241
0.0849582
0.0859218
0.0868137
0.0876324
0.0883767
0.0890457
0.0896383
0.0901537
0.0905914
0.0909509
0.0912322
0.091435
0.0915596
0.0916062
0.0915752
0.0914673
0.0912834
0.0910245
0.090692
0.0902876
0.0898132
0.089271
0.0886635
0.0879932
0.0872632
0.0864768
0.0856376
0.0847495
0.0838169
0.0828447
0.0818382
0.080803
0.0797453
0.078672
0.0775901
0.0765077
0.075433
0.0743752
0.0733441
0.0723502
0.0714051
0.0705211
0.0697113
0.0689897
0.0683707
0.0678688
0.0674972
0.0672652
0.0671745
0.0672141
0.067328
-9.92467e-05
1.64249e-05
2.75062e-05
-8.86791e-05
-0.000328022
-0.000687561
-0.00116
-0.00173488
-0.00239981
-0.0031425
-0.00395102
-0.00481343
-0.0057185
-0.00665571
-0.00761498
-0.00858745
-0.00956475
-0.0105391
-0.0115031
-0.0124502
-0.0133742
-0.0142697
-0.0151315
-0.015955
-0.0167357
-0.0174699
-0.0181542
-0.0187853
-0.0193602
-0.0198764
-0.0203315
-0.0207237
-0.0210508
-0.0213116
-0.0215046
-0.021629
-0.0216838
-0.0216682
-0.0215817
-0.021424
-0.0211949
-0.0208945
-0.0205226
-0.0200796
-0.0195661
-0.0189825
-0.0183293
-0.0176072
-0.0168171
-0.01596
-0.0150371
-0.0140495
-0.0129984
-0.011885
-0.0107109
-0.00947773
-0.00818714
-0.00684074
-0.00544017
-0.00398719
-0.00248376
-0.000931931
0.000666284
0.00230887
0.00399378
0.00571889
0.00748195
0.00928067
0.0111127
0.0129756
0.014867
0.0167847
0.0187261
0.0206887
0.0226699
0.024667
0.0266776
0.0286991
0.0307288
0.0327642
0.0348024
0.0368407
0.0388765
0.040907
0.0429297
0.0449416
0.0469402
0.0489227
0.0508864
0.0528286
0.0547465
0.0566376
0.0584992
0.0603287
0.0621238
0.0638818
0.0656002
0.0672766
0.0689085
0.0704936
0.0720294
0.073514
0.0749451
0.0763208
0.0776388
0.0788973
0.0800944
0.0812282
0.0822972
0.0832998
0.0842347
0.0851006
0.0858963
0.0866206
0.0872726
0.0878513
0.0883561
0.0887864
0.089142
0.0894226
0.0896284
0.0897595
0.0898161
0.0897989
0.0897084
0.0895456
0.0893115
0.0890077
0.0886358
0.0881977
0.0876956
0.0871319
0.0865094
0.0858309
0.0850997
0.0843193
0.0834937
0.0826271
0.0817242
0.0807903
0.0798307
0.0788516
0.0778594
0.076861
0.0758638
0.0748758
0.0739055
0.072962
0.072055
0.0711948
0.0703924
0.0696591
0.0690067
0.0684468
0.0679906
0.0676472
0.0674221
0.0673151
0.067328
0.0674419
-0.000114625
2.09467e-05
2.74348e-05
-9.23313e-05
-0.000322307
-0.000658959
-0.00109728
-0.00162841
-0.00224203
-0.00292771
-0.00367456
-0.00447233
-0.00531101
-0.00618107
-0.00707313
-0.00797858
-0.00888984
-0.00979953
-0.0107007
-0.0115867
-0.0124519
-0.0132911
-0.0140993
-0.0148717
-0.0156043
-0.0162934
-0.0169354
-0.017527
-0.0180656
-0.0185485
-0.0189735
-0.0193384
-0.0196414
-0.0198809
-0.0200558
-0.020165
-0.0202073
-0.0201821
-0.020089
-0.0199275
-0.0196975
-0.0193986
-0.0190309
-0.0185947
-0.0180905
-0.0175187
-0.0168798
-0.0161744
-0.0154031
-0.0145672
-0.0136677
-0.0127055
-0.0116819
-0.0105981
-0.00945546
-0.00825565
-0.00700023
-0.00569073
-0.00432868
-0.00291582
-0.0014541
5.44904e-05
0.00160804
0.00320465
0.00484234
0.00651905
0.00823258
0.00998067
0.011761
0.0135713
0.0154094
0.0172728
0.0191593
0.0210664
0.0229914
0.0249319
0.0268855
0.0288495
0.0308216
0.0327991
0.0347793
0.0367596
0.0387374
0.0407101
0.0426751
0.0446297
0.0465712
0.0484971
0.0504047
0.0522914
0.0541545
0.0559915
0.0577999
0.0595772
0.061321
0.0630288
0.0646983
0.066327
0.0679125
0.0694525
0.0709449
0.0723875
0.0737785
0.0751157
0.0763971
0.0776209
0.0787852
0.0798883
0.0809287
0.081905
0.0828159
0.0836601
0.0844366
0.0851442
0.085782
0.0863491
0.086845
0.0872691
0.0876213
0.0879015
0.0881097
0.0882461
0.0883111
0.0883052
0.0882291
0.0880836
0.0878701
0.0875898
0.0872446
0.0868363
0.0863672
0.0858395
0.085256
0.0846196
0.0839334
0.0832009
0.0824259
0.0816127
0.0807657
0.0798901
0.0789912
0.0780747
0.0771469
0.0762143
0.075284
0.0743636
0.0734609
0.0725844
0.0717431
0.0709464
0.070204
0.069526
0.0689226
0.0684038
0.0679787
0.0676552
0.0674378
0.0673281
0.0673412
0.0674815
6.36624e-07
0.000147161
0.00015293
3.19314e-05
-0.000192561
-0.000515716
-0.000932072
-0.00143365
-0.00201156
-0.00265613
-0.00335762
-0.00410662
-0.00489425
-0.00571163
-0.0065505
-0.00740259
-0.00826058
-0.00911764
-0.0099672
-0.0108031
-0.0116197
-0.0124119
-0.013175
-0.0139045
-0.0145966
-0.0152474
-0.0158534
-0.0164116
-0.016919
-0.0173735
-0.0177726
-0.018114
-0.018396
-0.0186173
-0.0187766
-0.0188725
-0.0189041
-0.0188707
-0.0187718
-0.018607
-0.018376
-0.0180785
-0.0177145
-0.0172843
-0.0167884
-0.016227
-0.0156006
-0.0149097
-0.0141551
-0.0133379
-0.0124589
-0.0115192
-0.0105198
-0.00946195
-0.0083471
-0.00717676
-0.0059524
-0.00467544
-0.0033474
-0.00197001
-0.000545189
0.000925183
0.00243929
0.00399531
0.00559129
0.00722518
0.00889485
0.0105981
0.0123328
0.0140966
0.0158874
0.017703
0.0195409
0.0213988
0.0232742
0.0251646
0.0270677
0.0289811
0.0309022
0.0328285
0.0347575
0.0366866
0.0386132
0.0405348
0.0424488
0.0443528
0.046244
0.04812
0.0499782
0.0518159
0.0536307
0.0554201
0.0571816
0.0589129
0.0606116
0.0622754
0.0639018
0.0654885
0.0670331
0.0685336
0.0699878
0.0713937
0.0727494
0.0740528
0.0753022
0.0764955
0.077631
0.0787072
0.0797226
0.0806759
0.0815657
0.082391
0.0831507
0.0838436
0.084469
0.0850259
0.085514
0.0859327
0.0862819
0.0865615
0.0867718
0.0869127
0.0869849
0.0869886
0.0869248
0.0867942
0.0865982
0.0863382
0.0860158
0.085633
0.085192
0.084695
0.0841447
0.0835439
0.0828957
0.0822036
0.0814712
0.0807026
0.0799024
0.0790752
0.0782264
0.0773614
0.0764863
0.0756072
0.0747308
0.0738643
0.073015
0.0721908
0.0714001
0.0706513
0.0699534
0.0693155
0.0687466
0.0682557
0.0678511
0.0675402
0.0673281
0.0672185
0.0672347
0.0673918
0.000255528
0.000391412
0.00038695
0.000259753
3.46573e-05
-0.000281982
-0.000684091
-0.00116453
-0.00171496
-0.00232679
-0.00299145
-0.00370003
-0.00444446
-0.00521681
-0.00600932
-0.00681459
-0.00762557
-0.00843579
-0.00923903
-0.0100297
-0.0108023
-0.0115519
-0.0122739
-0.0129641
-0.0136188
-0.0142342
-0.0148069
-0.015334
-0.0158127
-0.0162406
-0.0166154
-0.0169348
-0.0171974
-0.0174015
-0.0175461
-0.0176296
-0.0176511
-0.01761
-0.0175058
-0.0173379
-0.017106
-0.0168098
-0.0164494
-0.0160251
-0.0155372
-0.0149857
-0.0143712
-0.0136943
-0.0129558
-0.0121565
-0.0112973
-0.010379
-0.00940281
-0.00836999
-0.00728186
-0.00613985
-0.00494531
-0.00369961
-0.00240428
-0.00106105
0.000328231
0.00176182
0.003238
0.00475497
0.00631081
0.00790349
0.00953093
0.0111911
0.0128817
0.0146008
0.0163462
0.0181156
0.0199068
0.0217174
0.0235449
0.0253872
0.0272418
0.0291063
0.0309784
0.0328556
0.0347353
0.0366151
0.0384924
0.0403649
0.04223
0.0440853
0.0459282
0.0477563
0.049567
0.0513577
0.0531262
0.0548699
0.0565865
0.0582737
0.0599292
0.0615507
0.0631358
0.0646822
0.0661878
0.0676504
0.0690681
0.0704389
0.0717608
0.073032
0.0742505
0.0754147
0.0765228
0.0775733
0.0785648
0.0794961
0.0803659
0.0811731
0.0819166
0.0825955
0.0832089
0.0837562
0.0842367
0.0846502
0.0849964
0.0852755
0.0854875
0.0856327
0.0857114
0.0857242
0.0856718
0.0855551
0.0853755
0.0851343
0.0848333
0.0844742
0.0840592
0.0835906
0.0830711
0.0825032
0.0818901
0.0812351
0.0805418
0.0798141
0.0790563
0.0782732
0.0774697
0.076651
0.075823
0.0749914
0.0741626
0.0733432
0.0725402
0.0717608
0.0710128
0.0703039
0.0696423
0.0690362
0.0684938
0.0680232
0.0676323
0.0673281
0.0671161
0.0670017
0.0670107
0.0671619
0.00064923
0.000753505
0.000726942
0.000585659
0.000353076
3.59295e-05
-0.000359917
-0.000826994
-0.00135781
-0.00194489
-0.00258037
-0.00325638
-0.00396507
-0.0046996
-0.00545268
-0.00621756
-0.00698767
-0.00775679
-0.00851915
-0.0092695
-0.0100027
-0.010714
-0.0113989
-0.0120536
-0.0126743
-0.0132574
-0.0137997
-0.0142982
-0.0147506
-0.015154
-0.0155062
-0.0158054
-0.01605
-0.0162384
-0.0163691
-0.016441
-0.0164532
-0.0164051
-0.016296
-0.0161253
-0.0158926
-0.0155978
-0.015241
-0.0148224
-0.014342
-0.0138
-0.0131969
-0.0125334
-0.0118102
-0.011028
-0.0101876
-0.00928987
-0.00833593
-0.00732702
-0.00626443
-0.00514947
-0.00398341
-0.00276759
-0.00150356
-0.000193016
0.0011623
0.00256073
0.00400062
0.00548022
0.00699763
0.00855088
0.0101379
0.0117568
0.0134054
0.0150817
0.0167835
0.0185088
0.0202553
0.0220206
0.0238025
0.0255986
0.0274067
0.0292246
0.0310498
0.03288
0.0347127
0.0365453
0.0383756
0.0402011
0.0420195
0.0438283
0.0456252
0.0474075
0.0491728
0.0509188
0.0526429
0.0543431
0.0560169
0.0576621
0.0592765
0.0608577
0.0624035
0.0639116
0.06538
0.0668066
0.0681896
0.0695269
0.0708167
0.0720572
0.0732466
0.0743831
0.0754651
0.0764912
0.07746
0.0783704
0.0792211
0.0800111
0.0807393
0.0814049
0.0820069
0.0825448
0.0830182
0.0834266
0.08377
0.0840484
0.084262
0.0844109
0.0844956
0.0845167
0.0844748
0.0843711
0.0842066
0.0839827
0.0837013
0.083364
0.082973
0.0825306
0.0820392
0.0815014
0.0809203
0.080299
0.079641
0.0789502
0.0782308
0.0774871
0.076724
0.0759465
0.0751599
0.0743699
0.0735824
0.0728036
0.0720399
0.0712981
0.0705853
0.0699086
0.0692756
0.0686935
0.0681701
0.0677126
0.0673284
0.0670243
0.0668059
0.0666793
0.0666693
0.0667935
0.00117196
0.00122793
0.00116781
0.00100443
0.000757058
0.000431928
3.51883e-05
-0.000426133
-0.000945202
-0.00151518
-0.00212902
-0.00277979
-0.00346031
-0.00416402
-0.00488452
-0.00561544
-0.00635073
-0.00708462
-0.0078117
-0.00852696
-0.00922544
-0.00990278
-0.0105549
-0.011178
-0.0117682
-0.0123223
-0.0128371
-0.01331
-0.0137383
-0.0141194
-0.0144512
-0.014732
-0.0149601
-0.015134
-0.0152521
-0.0153135
-0.0153173
-0.0152627
-0.0151492
-0.014976
-0.0147428
-0.0144495
-0.0140961
-0.0136828
-0.0132096
-0.0126767
-0.0120846
-0.0114338
-0.0107251
-0.00995911
-0.0091365
-0.00825822
-0.00732538
-0.00633917
-0.00530077
-0.00421142
-0.00307236
-0.00188491
-0.000650602
0.000628941
0.00195206
0.00331715
0.00472262
0.00616674
0.00764768
0.0091635
0.0107122
0.0122919
0.0139006
0.0155363
0.0171969
0.0188802
0.0205842
0.0223066
0.0240451
0.0257975
0.0275617
0.0293353
0.0311161
0.0329017
0.0346897
0.0364777
0.0382633
0.0400443
0.0418185
0.0435833
0.0453365
0.0470754
0.0487978
0.0505013
0.0521837
0.0538427
0.0554761
0.0570816
0.0586571
0.0602002
0.0617088
0.0631808
0.0646141
0.0660068
0.0673569
0.0686628
0.0699224
0.071134
0.0722958
0.0734061
0.0744636
0.0754667
0.0764142
0.0773049
0.0781377
0.0789115
0.0796252
0.0802782
0.0808695
0.0813986
0.0818651
0.0822686
0.0826093
0.0828869
0.0831017
0.083254
0.0833441
0.0833726
0.0833404
0.0832483
0.0830975
0.0828895
0.0826258
0.0823084
0.0819391
0.0815203
0.0810542
0.0805436
0.0799911
0.0794
0.0787736
0.0781156
0.07743
0.0767211
0.0759933
0.0752516
0.0745009
0.0737465
0.072994
0.0722491
0.0715179
0.0708066
0.0701218
0.0694699
0.068858
0.0682926
0.0677808
0.0673292
0.0669447
0.0666337
0.0664018
0.0662553
0.0662153
0.0662958
0.00181019
0.00180483
0.00170179
0.00150876
0.00123927
0.000899476
0.000495133
3.25834e-05
-0.000481849
-0.00104182
-0.00164114
-0.00227341
-0.00293249
-0.00361201
-0.00430618
-0.00500917
-0.00571529
-0.00641944
-0.00711638
-0.00780128
-0.0084697
-0.00911748
-0.0097407
-0.0103357
-0.0108989
-0.0114271
-0.0119174
-0.0123672
-0.0127738
-0.0131348
-0.0134482
-0.0137123
-0.0139255
-0.0140861
-0.0141929
-0.0142447
-0.0142409
-0.0141806
-0.014063
-0.0138876
-0.0136541
-0.0133625
-0.0130126
-0.0126044
-0.012138
-0.0116138
-0.011032
-0.0103934
-0.00969843
-0.00894773
-0.008142
-0.00728217
-0.00636935
-0.00540465
-0.00438917
-0.00332406
-0.00221057
-0.00105002
0.000156119
0.00140628
0.00269888
0.00403237
0.00540521
0.00681573
0.00826211
0.00974244
0.0112548
0.0127974
0.0143682
0.0159654
0.0175868
0.0192305
0.0208943
0.0225759
0.0242733
0.0259843
0.0277067
0.0294384
0.0311772
0.0329206
0.0346662
0.0364119
0.0381553
0.0398943
0.0416265
0.0433498
0.0450615
0.0467594
0.0484412
0.0501046
0.0517475
0.0533676
0.0549628
0.0565308
0.0580695
0.0595767
0.0610503
0.0624881
0.0638884
0.0652491
0.0665684
0.0678445
0.0690756
0.07026
0.0713959
0.0724817
0.073516
0.0744975
0.075425
0.0762972
0.077113
0.0778715
0.0785717
0.0792127
0.0797939
0.0803147
0.0807746
0.0811736
0.0815114
0.0817882
0.082004
0.0821592
0.0822541
0.0822893
0.0822657
0.0821841
0.0820457
0.0818519
0.0816044
0.0813048
0.0809551
0.0805574
0.080114
0.0796275
0.0791006
0.0785363
0.0779378
0.0773087
0.0766528
0.0759741
0.075277
0.074566
0.0738459
0.0731215
0.0723982
0.0716812
0.0709762
0.0702889
0.0696253
0.0689916
0.0683939
0.0678384
0.0673314
0.0668791
0.0664877
0.0661631
0.0659109
0.065737
0.0656573
0.0656811
0.00254962
0.00247365
0.00231997
0.00209051
0.00179254
0.0014318
0.00101356
0.000543516
2.74453e-05
-0.000529005
-0.00112027
-0.0017405
-0.0023841
-0.00304551
-0.00371921
-0.00439981
-0.00508223
-0.00576157
-0.0064331
-0.00709222
-0.00773485
-0.0083571
-0.0089552
-0.00952555
-0.0100649
-0.0105703
-0.0110389
-0.0114681
-0.0118552
-0.0121981
-0.0124951
-0.0127442
-0.0129439
-0.0130926
-0.0131891
-0.0132324
-0.0132218
-0.0131563
-0.0130352
-0.0128579
-0.0126244
-0.0123345
-0.0119879
-0.0115847
-0.011125
-0.010609
-0.0100371
-0.00941
-0.00872809
-0.00799192
-0.00720218
-0.00635985
-0.00546599
-0.00452167
-0.00352787
-0.00248572
-0.00139644
-0.000261347
0.000918116
0.00214044
0.00340412
0.00470769
0.00604966
0.00742837
0.00884202
0.0102887
0.0117666
0.013274
0.014809
0.0163697
0.0179542
0.0195602
0.0211859
0.022829
0.0244874
0.0261592
0.0278422
0.0295342
0.0312331
0.0329365
0.0346421
0.0363478
0.0380513
0.0397505
0.0414432
0.043127
0.0447997
0.0464588
0.0481022
0.0497278
0.0513333
0.0529167
0.0544758
0.0560085
0.0575125
0.0589858
0.0604263
0.061832
0.0632011
0.0645318
0.065822
0.0670702
0.0682745
0.0694332
0.0705447
0.0716075
0.0726201
0.0735813
0.0744899
0.0753447
0.0761447
0.0768888
0.0775761
0.0782059
0.0787775
0.0792904
0.0797442
0.0801387
0.0804738
0.0807495
0.0809661
0.0811238
0.0812229
0.0812641
0.0812481
0.0811759
0.0810486
0.0808676
0.0806344
0.0803507
0.0800185
0.0796396
0.0792165
0.0787514
0.078247
0.0777062
0.0771322
0.0765282
0.075898
0.0752455
0.0745746
0.0738896
0.0731951
0.0724956
0.071796
0.0711013
0.0704167
0.0697475
0.0690991
0.0684773
0.0678877
0.0673359
0.0668276
0.0663684
0.0659639
0.0656196
0.0653407
0.0651328
0.0650055
0.0649629
0.00337671
0.0032233
0.00301275
0.00274143
0.0024095
0.00202208
0.00158426
0.00110106
0.000577579
1.87748e-05
-0.000570182
-0.00118425
-0.00181814
-0.00246686
-0.00312537
-0.00378882
-0.00445255
-0.00511186
-0.00576237
-0.00640001
-0.00702096
-0.00762145
-0.00819789
-0.00874693
-0.00926558
-0.00975105
-0.0102005
-0.0106114
-0.0109813
-0.0113083
-0.0115905
-0.0118263
-0.0120139
-0.0121519
-0.0122393
-0.0122751
-0.0122584
-0.0121884
-0.0120642
-0.0118856
-0.0116523
-0.0113641
-0.0110208
-0.0106224
-0.010169
-0.00966097
-0.0090986
-0.00848239
-0.00781282
-0.00709039
-0.0063158
-0.00549004
-0.00461415
-0.00368909
-0.00271579
-0.00169533
-0.000628931
0.000482079
0.0016363
0.0028323
0.00406865
0.00534396
0.00665676
0.0080054
0.00938805
0.0108029
0.0122483
0.0137224
0.0152236
0.0167499
0.0182992
0.0198697
0.0214593
0.0230659
0.0246876
0.0263224
0.0279681
0.0296227
0.0312839
0.0329495
0.0346173
0.0362851
0.037951
0.0396127
0.041268
0.0429147
0.0445505
0.046173
0.0477803
0.0493701
0.0509405
0.0524893
0.0540144
0.0555137
0.0569851
0.0584265
0.0598359
0.0612114
0.0625512
0.0638536
0.0651166
0.0663385
0.0675176
0.0686522
0.0697408
0.0707819
0.0717742
0.0727164
0.0736073
0.0744457
0.0752308
0.0759614
0.0766367
0.077256
0.0778185
0.0783239
0.0787718
0.079162
0.0794944
0.0797691
0.0799861
0.0801458
0.0802486
0.080295
0.0802858
0.0802219
0.0801044
0.0799347
0.0797142
0.0794447
0.0791278
0.0787656
0.0783601
0.0779138
0.0774291
0.0769088
0.0763559
0.0757736
0.0751654
0.0745349
0.073886
0.0732227
0.0725491
0.0718697
0.0711888
0.0705113
0.0698417
0.0691851
0.0685465
0.067931
0.0673438
0.0667899
0.0662747
0.065803
0.06538
0.0650104
0.0646993
0.0644518
0.0642708
0.0641546
0.00427858
0.00404279
0.00377086
0.003453
0.00308223
0.00266333
0.00220092
0.00169938
0.0011632
0.000596872
4.90655e-06
-0.000608174
-0.00123755
-0.00187858
-0.00252686
-0.003178
-0.00382751
-0.00447115
-0.00510495
-0.0057252
-0.00632821
-0.00691044
-0.00746855
-0.00799949
-0.00850045
-0.00896865
-0.00940138
-0.00979624
-0.0101512
-0.0104642
-0.0107335
-0.0109574
-0.0111342
-0.0112629
-0.0113423
-0.0113715
-0.0113495
-0.0112754
-0.0111488
-0.0109691
-0.0107363
-0.01045
-0.01011
-0.00971623
-0.00926898
-0.00876852
-0.00821518
-0.00760933
-0.00695142
-0.00624196
-0.00548173
-0.00467168
-0.00381278
-0.00290589
-0.0019519
-0.000951888
9.28996e-05
0.00118115
0.00231152
0.00348267
0.00469326
0.00594194
0.00722723
0.00854744
0.00990081
0.0112856
0.0127002
0.0141431
0.0156123
0.0171061
0.0186224
0.0201593
0.0217148
0.023287
0.0248741
0.0264739
0.0280845
0.0297037
0.0313294
0.0329594
0.0345915
0.0362238
0.0378542
0.0394805
0.0411007
0.0427124
0.0443134
0.0459015
0.0474747
0.049031
0.0505683
0.0520846
0.0535778
0.0550457
0.0564864
0.0578978
0.059278
0.0606252
0.0619375
0.0632133
0.0644508
0.065648
0.0668035
0.0679156
0.0689827
0.0700036
0.0709768
0.0719012
0.0727755
0.0735987
0.0743698
0.0750877
0.0757518
0.0763611
0.0769152
0.0774135
0.0778558
0.0782419
0.0785716
0.078845
0.0790623
0.0792236
0.0793295
0.0793804
0.079377
0.0793204
0.0792116
0.0790518
0.0788425
0.0785852
0.0782818
0.077934
0.077544
0.0771139
0.0766461
0.0761434
0.0756085
0.0750446
0.0744548
0.0738426
0.0732118
0.0725659
0.0719091
0.0712451
0.0705784
0.0699131
0.0692538
0.0686048
0.0679708
0.0673565
0.0667665
0.0662055
0.0656782
0.0651891
0.0647426
0.0643429
0.0639948
0.063703
0.0634635
0.0632689
0.00524265
0.00492151
0.00458482
0.00421674
0.00380308
0.00334834
0.00285702
0.00233268
0.00177916
0.0012006
0.000600829
-1.5798e-05
-0.000645287
-0.00128336
-0.00192598
-0.00256905
-0.00320853
-0.00384064
-0.00446173
-0.00506829
-0.00565685
-0.00622413
-0.00676713
-0.00728301
-0.00776904
-0.00822248
-0.00864083
-0.00902197
-0.00936397
-0.00966487
-0.00992289
-0.0101363
-0.0103039
-0.0104244
-0.010497
-0.0105204
-0.0104938
-0.0104163
-0.0102877
-0.0101074
-0.00987531
-0.00959093
-0.00925411
-0.00886491
-0.0084236
-0.00793044
-0.00738568
-0.00678963
-0.00614272
-0.00544554
-0.0046989
-0.00390372
-0.00306083
-0.00217103
-0.00123521
-0.000254472
0.000769915
0.00183668
0.00294457
0.00409234
0.00527872
0.00650234
0.00776168
0.00905508
0.0103808
0.0117374
0.0131231
0.0145364
0.0159756
0.0174387
0.0189238
0.020429
0.0219525
0.0234924
0.0250469
0.0266139
0.0281913
0.0297773
0.0313695
0.0329659
0.0345646
0.0361634
0.0377605
0.0393537
0.0409407
0.0425195
0.0440879
0.0456437
0.047185
0.0487098
0.0502161
0.0517019
0.0531651
0.0546036
0.0560155
0.0573988
0.0587516
0.0600723
0.061359
0.06261
0.0638235
0.0649977
0.0661311
0.0672221
0.0682692
0.0692712
0.0702266
0.0711343
0.0719932
0.0728022
0.0735601
0.0742663
0.0749197
0.0755198
0.0760659
0.0765575
0.0769945
0.0773766
0.0777037
0.0779758
0.078193
0.0783556
0.078464
0.0785187
0.0785204
0.07847
0.0783686
0.0782173
0.0780177
0.0777711
0.0774792
0.0771439
0.076767
0.0763508
0.0758975
0.0754095
0.0748897
0.0743409
0.0737662
0.0731689
0.0725524
0.0719202
0.0712759
0.0706234
0.0699665
0.0693091
0.0686554
0.0680094
0.0673754
0.0667575
0.0661602
0.0655874
0.0650436
0.0645326
0.0640583
0.0636244
0.0632353
0.0628955
0.062594
0.0623177
0.00625758
0.00584928
0.00544542
0.00502418
0.00456442
0.00407038
0.0035463
0.00299517
0.0024203
0.00182529
0.00121366
0.000589171
-4.45952e-05
-0.000683853
-0.00132484
-0.00196379
-0.0025972
-0.00322159
-0.0038336
-0.00442991
-0.00500731
-0.00556282
-0.00609373
-0.00659735
-0.00707098
-0.00751206
-0.00791837
-0.00828798
-0.00861899
-0.00890948
-0.00915774
-0.00936226
-0.00952188
-0.00963553
-0.00970212
-0.00972058
-0.00969003
-0.00960991
-0.00947981
-0.00929932
-0.00906805
-0.00878567
-0.00845206
-0.00806735
-0.00763181
-0.00714565
-0.006609
-0.00602216
-0.00538566
-0.00470013
-0.00396638
-0.0031852
-0.00235735
-0.0014836
-0.000564861
0.000397713
0.00140287
0.00244941
0.00353618
0.00466203
0.00582568
0.00702573
0.00826063
0.00952879
0.0108286
0.0121586
0.0135172
0.0149028
0.0163137
0.017748
0.0192038
0.0206793
0.0221727
0.0236822
0.0252061
0.0267422
0.0282886
0.0298432
0.031404
0.032969
0.0345363
0.0361038
0.0376696
0.0392316
0.0407877
0.0423357
0.0438735
0.0453991
0.0469105
0.0484059
0.0498832
0.0513404
0.0527756
0.0541866
0.0555715
0.0569286
0.0582559
0.0595519
0.0608146
0.0620424
0.0632336
0.0643863
0.0654991
0.0665705
0.067599
0.0685833
0.0695222
0.0704145
0.071259
0.0720546
0.0728004
0.0734955
0.0741391
0.0747305
0.0752691
0.0757545
0.0761864
0.0765646
0.0768891
0.0771597
0.0773767
0.0775402
0.0776506
0.0777084
0.0777143
0.0776692
0.0775741
0.0774302
0.0772387
0.0770012
0.0767192
0.0763943
0.0760286
0.0756239
0.0751825
0.0747068
0.0741992
0.0736626
0.0730999
0.0725141
0.0719085
0.0712863
0.0706509
0.0700059
0.0693549
0.0687013
0.0680491
0.0674019
0.0667636
0.066138
0.0655291
0.0649406
0.0643761
0.0638393
0.0633336
0.0628619
0.0624286
0.0620379
0.0616719
0.0613116
0.007313
0.00681634
0.00634368
0.00586739
0.00535885
0.00482243
0.00426245
0.00368125
0.00308156
0.00246643
0.0018393
0.00120316
0.000561309
-8.27997e-05
-0.000725801
-0.00136434
-0.00199529
-0.00261546
-0.00322166
-0.00381088
-0.00438021
-0.004927
-0.00544863
-0.00594249
-0.00640608
-0.00683716
-0.0072337
-0.00759383
-0.00791564
-0.00819734
-0.00843734
-0.00863445
-0.00878748
-0.00889532
-0.00895686
-0.00897111
-0.0089374
-0.00885527
-0.00872422
-0.00854377
-0.00831351
-0.00803321
-0.00770284
-0.00732259
-0.00689265
-0.00641311
-0.0058841
-0.00530599
-0.00467936
-0.00400489
-0.00328329
-0.00251525
-0.00170148
-0.000842774
5.98935e-05
0.00100537
0.00199244
0.00302
0.00408702
0.00519235
0.00633468
0.00751259
0.00872454
0.00996902
0.0112445
0.0125497
0.0138829
0.0152425
0.0166269
0.0180342
0.0194625
0.0209101
0.0223753
0.0238565
0.0253516
0.0268588
0.0283761
0.0299013
0.0314327
0.0329684
0.0345063
0.0360446
0.0375812
0.0391141
0.0406411
0.0421603
0.0436696
0.0451669
0.0466505
0.0481185
0.0495687
0.0509994
0.0524084
0.0537937
0.0551536
0.0564863
0.0577899
0.0590628
0.0603033
0.0615096
0.06268
0.0638128
0.0649065
0.0659597
0.0669709
0.0679389
0.0688624
0.0697403
0.0705715
0.0713548
0.0720893
0.0727741
0.0734085
0.0739918
0.0745234
0.0750029
0.07543
0.0758046
0.0761264
0.0763955
0.0766119
0.076776
0.0768879
0.0769482
0.0769576
0.0769169
0.0768271
0.0766893
0.0765046
0.0762747
0.0760008
0.0756846
0.075328
0.0749328
0.074501
0.074035
0.073537
0.0730099
0.0724562
0.0718789
0.0712809
0.0706654
0.0700354
0.0693944
0.0687455
0.068092
0.0674375
0.0667853
0.0661389
0.0655019
0.0648776
0.0642696
0.0636811
0.0631152
0.0625747
0.0620623
0.0615822
0.0611384
0.060706
0.0602608
0.00839951
0.00781407
0.00727139
0.00673839
0.00617925
0.00559812
0.00499949
0.00438533
0.00375786
0.00311966
0.00247359
0.00182245
0.00116925
0.000516966
-0.000131401
-0.000772919
-0.00140468
-0.00202374
-0.00262717
-0.00321225
-0.00377647
-0.00431729
-0.00483216
-0.00531864
-0.00577452
-0.00619783
-0.00658669
-0.00693917
-0.00725347
-0.00752795
-0.00776126
-0.00795234
-0.00809997
-0.008203
-0.00826036
-0.00827126
-0.00823517
-0.00815161
-0.00802
-0.00783983
-0.00761076
-0.00733269
-0.00700564
-0.00662978
-0.00620519
-0.00573191
-0.00521013
-0.00464029
-0.00402305
-0.00335903
-0.00264882
-0.00189305
-0.00109246
-0.000247874
0.000639693
0.0015691
0.00253924
0.00354909
0.00459766
0.00568382
0.0068062
0.00796334
0.0091538
0.0103762
0.011629
0.0129109
0.0142204
0.0155558
0.0169153
0.0182973
0.0196999
0.0211215
0.0225605
0.0240151
0.0254835
0.0269637
0.0284536
0.0299516
0.0314556
0.0329638
0.0344744
0.0359853
0.0374947
0.0390005
0.0405006
0.0419929
0.0434756
0.0449468
0.0464045
0.0478469
0.0492721
0.050678
0.0520627
0.0534243
0.054761
0.0560711
0.0573527
0.0586044
0.0598242
0.0610106
0.0621618
0.0632761
0.0643522
0.0653885
0.0663838
0.0673367
0.0682461
0.0691107
0.0699295
0.0707014
0.0714254
0.0721008
0.0727266
0.0733023
0.0738274
0.0743014
0.074724
0.075095
0.0754143
0.0756817
0.0758975
0.0760617
0.0761747
0.076237
0.0762491
0.076212
0.0761264
0.0759936
0.0758145
0.0755907
0.0753234
0.0750142
0.0746648
0.074277
0.0738527
0.0733941
0.0729033
0.072383
0.0718356
0.0712638
0.0706705
0.0700586
0.0694309
0.0687904
0.0681403
0.0674836
0.0668233
0.0661626
0.0655047
0.0648528
0.06421
0.0635793
0.0629636
0.0623656
0.0617878
0.0612323
0.0607033
0.0602046
0.0597048
0.059174
0.0095085
0.00883441
0.00822116
0.00763015
0.0070189
0.00639126
0.00575182
0.00510228
0.00444437
0.00378041
0.00311255
0.00244355
0.00177606
0.00111258
0.000455743
-0.000191789
-0.000827276
-0.00144803
-0.00205153
-0.00263531
-0.00319706
-0.00373434
-0.00424477
-0.00472618
-0.00517662
-0.00559427
-0.00597728
-0.0063238
-0.00663221
-0.00690106
-0.00712921
-0.00731551
-0.00745879
-0.00755791
-0.007612
-0.00762043
-0.00758269
-0.00749819
-0.00736635
-0.00718673
-0.00695909
-0.00668341
-0.00635973
-0.00598812
-0.00556861
-0.00510125
-0.00458633
-0.00402439
-0.00341605
-0.00276183
-0.00206225
-0.00131793
-0.000529652
0.000301692
0.0011751
0.00208948
0.00304383
0.00403721
0.00506862
0.00613687
0.00724059
0.00837834
0.00954876
0.0107505
0.0119823
0.0132426
0.0145299
0.0158427
0.0171791
0.0185375
0.0199162
0.0213136
0.0227282
0.0241581
0.0256016
0.0270566
0.0285212
0.0299937
0.0314722
0.032955
0.0344402
0.0359258
0.0374099
0.0388905
0.0403655
0.041833
0.0432911
0.044738
0.0461718
0.0475906
0.0489925
0.0503756
0.0517379
0.0530776
0.0543928
0.055682
0.0569435
0.0581755
0.0593764
0.0605444
0.0616779
0.0627753
0.0638351
0.064856
0.0658366
0.0667756
0.067672
0.0685244
0.0693319
0.0700933
0.0708077
0.0714743
0.0720922
0.072661
0.07318
0.0736489
0.0740672
0.0744348
0.0747515
0.0750172
0.0752321
0.0753962
0.0755099
0.0755735
0.0755878
0.0755534
0.0754713
0.0753423
0.0751677
0.0749486
0.0746865
0.0743826
0.0740387
0.0736564
0.0732375
0.0727841
0.0722983
0.0717823
0.0712386
0.0706698
0.0700784
0.0694672
0.0688388
0.0681959
0.0675415
0.0668783
0.0662091
0.0655369
0.0648645
0.0641946
0.0635302
0.062874
0.0622285
0.061596
0.0609786
0.060378
0.0597984
0.0592437
0.0586757
0.0580594
0.0106322
0.00987002
0.00918597
0.00853619
0.00787159
0.00719601
0.00651412
0.00582723
0.00513664
0.00444434
0.0037524
0.00306303
0.00237851
0.00170105
0.00103303
0.000376846
-0.000264985
-0.000890109
-0.00149633
-0.00208138
-0.00264301
-0.00317896
-0.00368715
-0.0041657
-0.00461281
-0.00502668
-0.00540553
-0.00574772
-0.00605182
-0.0063166
-0.00654093
-0.0067236
-0.0068635
-0.00695966
-0.0070114
-0.00701817
-0.00697936
-0.00689436
-0.00676263
-0.00658384
-0.00635788
-0.00608474
-0.00576443
-0.0053969
-0.0049822
-0.00452048
-0.00401212
-0.00345768
-0.0028577
-0.00221263
-0.00152294
-0.000789292
-1.25215e-05
0.000806433
0.0016666
0.00256701
0.00350672
0.00448482
0.00550028
0.00655186
0.00763819
0.0087579
0.00990972
0.0110924
0.0123046
0.0135448
0.0148116
0.0161033
0.0174182
0.0187548
0.0201113
0.0214864
0.0228783
0.0242854
0.0257057
0.0271373
0.0285785
0.0300275
0.0314825
0.0329418
0.0344035
0.0358657
0.0373264
0.0387836
0.0402355
0.0416801
0.0431156
0.0445401
0.0459518
0.0473489
0.0487294
0.0500915
0.0514332
0.0527527
0.0540483
0.0553184
0.0565614
0.0577754
0.0589589
0.0601101
0.0612274
0.0623093
0.0633542
0.064361
0.0653282
0.0662547
0.0671391
0.0679804
0.0687775
0.0695293
0.0702349
0.0708935
0.0715043
0.0720667
0.0725801
0.0730442
0.0734585
0.0738229
0.0741371
0.0744011
0.0746148
0.0747786
0.0748925
0.0749571
0.0749729
0.0749405
0.0748609
0.0747348
0.0745635
0.074348
0.0740895
0.0737895
0.0734494
0.0730708
0.0726555
0.0722053
0.0717222
0.0712083
0.0706661
0.0700977
0.0695057
0.0688925
0.0682606
0.0676127
0.0669511
0.0662786
0.0655978
0.0649112
0.0642214
0.063531
0.0628424
0.0621582
0.0614805
0.0608114
0.0601525
0.0595051
0.0588738
0.0582621
0.0576258
0.0569245
0.0117633
0.010914
0.0101594
0.00945045
0.00873164
0.00800703
0.00728131
0.00655526
0.0058302
0.00510759
0.00438941
0.00367735
0.00297338
0.00227951
0.0015979
0.000930717
0.000280118
-0.000351889
-0.00096324
-0.00155177
-0.0021154
-0.00265216
-0.00316025
-0.00363797
-0.0040836
-0.00449539
-0.00487171
-0.00521115
-0.00551247
-0.00577458
-0.00599624
-0.00617633
-0.00631384
-0.00640801
-0.00645829
-0.00646407
-0.00642469
-0.0063396
-0.00620835
-0.00603071
-0.00580665
-0.00553616
-0.00521912
-0.00485549
-0.00444538
-0.00398907
-0.00348699
-0.00293962
-0.00234744
-0.00171085
-0.00103034
-0.000306634
0.00045938
0.00126678
0.00211467
0.00300215
0.00392834
0.00489232
0.00589299
0.0069291
0.0079993
0.00910232