/*--------------------------------*- C++ -*----------------------------------*\
  =========                 |
  \\      /  F ield         | OpenFOAM: The Open Source CFD Toolbox
   \\    /   O peration     | Website:  https://openfoam.org
    \\  /    A nd           | Version:  7
     \\/     M anipulation  |
\*---------------------------------------------------------------------------*/
FoamFile
{
    version     2.0;
    format      ascii;
    class       surfaceScalarField;
    location    "0.1375";
    object      phi;
}
// * * * * * * * * * * * * * * * * * * * * * * * * * * * * * * * * * * * * * //

dimensions      [0 3 -1 0 0 0 0];

internalField   nonuniform List<scalar> 
50880
(
5.90458e-12
-5.94493e-12
3.60449e-11
-3.01463e-11
8.15825e-11
-4.5536e-11
1.31771e-10
-5.01904e-11
1.79274e-10
-4.74993e-11
2.19132e-10
-3.98568e-11
2.48004e-10
-2.88718e-11
2.63672e-10
-1.56655e-11
2.64662e-10
-9.89722e-13
2.50054e-10
1.46038e-11
2.19319e-10
3.07433e-11
1.72203e-10
4.71115e-11
1.08686e-10
6.35237e-11
2.88937e-11
7.97857e-11
-6.68951e-11
9.57894e-11
-1.78333e-10
1.11437e-10
-3.04992e-10
1.26659e-10
-4.46364e-10
1.41374e-10
-6.01897e-10
1.55532e-10
-7.71007e-10
1.69114e-10
-9.53096e-10
1.82087e-10
-1.14752e-09
1.94421e-10
-1.35362e-09
2.06105e-10
-1.57076e-09
2.17136e-10
-1.79825e-09
2.27496e-10
-2.03543e-09
2.3718e-10
-2.28162e-09
2.46193e-10
-2.53616e-09
2.54531e-10
-2.79835e-09
2.62199e-10
-3.06755e-09
2.69191e-10
-3.34307e-09
2.75522e-10
-3.62428e-09
2.81205e-10
-3.91052e-09
2.86241e-10
-4.20115e-09
2.90635e-10
-4.49554e-09
2.94389e-10
-4.79306e-09
2.97531e-10
-5.09313e-09
3.00065e-10
-5.39513e-09
3.01997e-10
-5.69846e-09
3.03339e-10
-6.00257e-09
3.04101e-10
-6.30687e-09
3.04302e-10
-6.61083e-09
3.03955e-10
-6.9139e-09
3.03065e-10
-7.21554e-09
3.01645e-10
-7.51525e-09
2.99709e-10
-7.81252e-09
2.97269e-10
-8.10686e-09
2.94337e-10
-8.39778e-09
2.90927e-10
-8.68483e-09
2.87051e-10
-8.96755e-09
2.82719e-10
-9.24549e-09
2.77944e-10
-9.51823e-09
2.72742e-10
-9.78536e-09
2.67127e-10
-1.00465e-08
2.61112e-10
-1.03012e-08
2.54708e-10
-1.05491e-08
2.47926e-10
-1.07899e-08
2.40785e-10
-1.10232e-08
2.33298e-10
-1.12487e-08
2.25475e-10
-1.1466e-08
2.17326e-10
-1.16749e-08
2.08868e-10
-1.1875e-08
2.00115e-10
-1.20661e-08
1.9108e-10
-1.22478e-08
1.81775e-10
-1.242e-08
1.72214e-10
-1.25825e-08
1.62412e-10
-1.27348e-08
1.52382e-10
-1.2877e-08
1.42137e-10
-1.30087e-08
1.3169e-10
-1.31297e-08
1.21057e-10
-1.324e-08
1.10251e-10
-1.33393e-08
9.92837e-11
-1.34274e-08
8.81701e-11
-1.35044e-08
7.69258e-11
-1.35699e-08
6.55673e-11
-1.3624e-08
5.41097e-11
-1.36666e-08
4.25657e-11
-1.36975e-08
3.09489e-11
-1.37168e-08
1.92738e-11
-1.37244e-08
7.55453e-12
-1.37202e-08
-4.19298e-12
-1.37042e-08
-1.59522e-11
-1.36765e-08
-2.77068e-11
-1.36371e-08
-3.94407e-11
-1.35859e-08
-5.11388e-11
-1.35232e-08
-6.27876e-11
-1.34488e-08
-7.43712e-11
-1.33629e-08
-8.58723e-11
-1.32656e-08
-9.72734e-11
-1.31571e-08
-1.08557e-10
-1.30374e-08
-1.19705e-10
-1.29067e-08
-1.30703e-10
-1.27651e-08
-1.41534e-10
-1.2613e-08
-1.52183e-10
-1.24503e-08
-1.62633e-10
-1.22775e-08
-1.72867e-10
-1.20946e-08
-1.82867e-10
-1.1902e-08
-1.92614e-10
-1.16999e-08
-2.02092e-10
-1.14886e-08
-2.11286e-10
-1.12684e-08
-2.20178e-10
-1.10397e-08
-2.28752e-10
-1.08027e-08
-2.36992e-10
-1.05578e-08
-2.44879e-10
-1.03054e-08
-2.52395e-10
-1.00459e-08
-2.59524e-10
-9.77962e-09
-2.6625e-10
-9.50707e-09
-2.72556e-10
-9.22864e-09
-2.78425e-10
-8.9448e-09
-2.83844e-10
-8.656e-09
-2.88797e-10
-8.36274e-09
-2.93269e-10
-8.06549e-09
-2.97245e-10
-7.76478e-09
-3.00708e-10
-7.46114e-09
-3.03644e-10
-7.1551e-09
-3.0604e-10
-6.84722e-09
-3.07884e-10
-6.53806e-09
-3.09161e-10
-6.2282e-09
-3.09858e-10
-5.91823e-09
-3.09965e-10
-5.60877e-09
-3.0947e-10
-5.30041e-09
-3.0836e-10
-4.99378e-09
-3.06627e-10
-4.68952e-09
-3.04262e-10
-4.38826e-09
-3.01256e-10
-4.09066e-09
-2.97602e-10
-3.79737e-09
-2.93292e-10
-3.50905e-09
-2.8832e-10
-3.22637e-09
-2.82682e-10
-2.95e-09
-2.76373e-10
-2.68061e-09
-2.6939e-10
-2.41887e-09
-2.61733e-10
-2.16547e-09
-2.53404e-10
-1.92106e-09
-2.44405e-10
-1.68632e-09
-2.34739e-10
-1.46191e-09
-2.24412e-10
-1.24848e-09
-2.13433e-10
-1.04667e-09
-2.01812e-10
-8.57109e-10
-1.89561e-10
-6.80408e-10
-1.767e-10
-5.17155e-10
-1.63252e-10
-3.67907e-10
-1.49247e-10
-2.33186e-10
-1.34722e-10
-1.13465e-10
-1.19721e-10
-9.16426e-12
-1.04301e-10
7.9366e-11
-8.8531e-11
1.5186e-10
-7.24947e-11
2.08158e-10
-5.62993e-11
2.4824e-10
-4.00821e-11
2.72259e-10
-2.40189e-11
2.80596e-10
-8.33775e-12
2.73935e-10
6.65974e-12
2.53368e-10
2.05669e-11
2.20543e-10
3.28246e-11
1.77892e-10
4.26509e-11
1.28937e-10
4.89545e-11
7.86933e-11
5.02418e-11
3.42362e-11
4.44571e-11
5.20995e-12
2.90272e-11
5.20981e-12
2.94727e-11
-3.54117e-11
1.00033e-10
-1.00712e-10
1.94406e-10
-1.39908e-10
2.95092e-10
-1.5088e-10
3.87351e-10
-1.3976e-10
4.59824e-10
-1.12333e-10
5.04085e-10
-7.31317e-11
5.14004e-10
-2.55847e-11
4.85288e-10
2.77302e-11
4.14993e-10
8.48981e-11
3.01263e-10
1.44472e-10
1.43048e-10
2.05329e-10
-6.00607e-11
2.66631e-10
-3.07985e-10
3.2771e-10
-6.00225e-10
3.88036e-10
-9.36002e-10
4.4721e-10
-1.31425e-09
5.04909e-10
-1.73373e-09
5.60857e-10
-2.19305e-09
6.14847e-10
-2.69066e-09
6.66731e-10
-3.22493e-09
7.16365e-10
-3.79416e-09
7.63656e-10
-4.39658e-09
8.08533e-10
-5.03039e-09
8.50933e-10
-5.69371e-09
8.90818e-10
-6.38469e-09
9.2816e-10
-7.10145e-09
9.62944e-10
-7.84207e-09
9.95164e-10
-8.60468e-09
1.02481e-09
-9.38739e-09
1.0519e-09
-1.01883e-08
1.07645e-09
-1.10056e-08
1.09848e-09
-1.18374e-08
1.11802e-09
-1.26818e-08
1.13509e-09
-1.35372e-08
1.14972e-09
-1.44016e-08
1.16195e-09
-1.52733e-08
1.17182e-09
-1.61507e-08
1.17936e-09
-1.7032e-08
1.18462e-09
-1.79155e-08
1.18764e-09
-1.87997e-08
1.18845e-09
-1.96828e-08
1.18712e-09
-2.05634e-08
1.18367e-09
-2.14399e-08
1.17816e-09
-2.23109e-08
1.17063e-09
-2.31747e-08
1.16114e-09
-2.40301e-08
1.14972e-09
-2.48756e-08
1.13643e-09
-2.57099e-08
1.12132e-09
-2.65316e-08
1.10443e-09
-2.73395e-08
1.08582e-09
-2.81323e-08
1.06554e-09
-2.89088e-08
1.04363e-09
-2.96678e-08
1.02015e-09
-3.04083e-08
9.9515e-10
-3.1129e-08
9.68677e-10
-3.1829e-08
9.40787e-10
-3.25073e-08
9.11531e-10
-3.31627e-08
8.80958e-10
-3.37945e-08
8.49118e-10
-3.44017e-08
8.16066e-10
-3.49835e-08
7.81856e-10
-3.5539e-08
7.46542e-10
-3.60674e-08
7.10174e-10
-3.65679e-08
6.72804e-10
-3.704e-08
6.34485e-10
-3.74829e-08
5.95267e-10
-3.7896e-08
5.55208e-10
-3.82786e-08
5.14362e-10
-3.86304e-08
4.72787e-10
-3.89507e-08
4.30535e-10
-3.9239e-08
3.87658e-10
-3.94951e-08
3.44214e-10
-3.97184e-08
3.0026e-10
-3.99087e-08
2.55854e-10
-4.00656e-08
2.11054e-10
-4.0189e-08
1.65916e-10
-4.02785e-08
1.20498e-10
-4.03341e-08
7.48573e-11
-4.03556e-08
2.90542e-11
-4.0343e-08
-1.68532e-11
-4.02961e-08
-6.28046e-11
-4.02151e-08
-1.08739e-10
-4.00999e-08
-1.54594e-10
-3.99508e-08
-2.00307e-10
-3.97677e-08
-2.45818e-10
-3.9551e-08
-2.91063e-10
-3.93009e-08
-3.35978e-10
-3.90177e-08
-3.805e-10
-3.87017e-08
-4.24562e-10
-3.83533e-08
-4.68098e-10
-3.7973e-08
-5.11041e-10
-3.75612e-08
-5.53328e-10
-3.71185e-08
-5.94897e-10
-3.66454e-08
-6.35682e-10
-3.61427e-08
-6.75616e-10
-3.56109e-08
-7.14631e-10
-3.50509e-08
-7.5266e-10
-3.44633e-08
-7.89635e-10
-3.38491e-08
-8.25492e-10
-3.32091e-08
-8.60167e-10
-3.25443e-08
-8.93594e-10
-3.18556e-08
-9.25707e-10
-3.1144e-08
-9.56441e-10
-3.04107e-08
-9.85728e-10
-2.96567e-08
-1.0135e-09
-2.88832e-08
-1.0397e-09
-2.80915e-08
-1.06425e-09
-2.72829e-08
-1.08711e-09
-2.64585e-08
-1.10821e-09
-2.56198e-08
-1.12749e-09
-2.47682e-08
-1.14488e-09
-2.39051e-08
-1.16034e-09
-2.3032e-08
-1.1738e-09
-2.21504e-08
-1.18521e-09
-2.1262e-08
-1.19452e-09
-2.03682e-08
-1.20168e-09
-1.94707e-08
-1.20663e-09
-1.85712e-08
-1.20933e-09
-1.76714e-08
-1.20974e-09
-1.67731e-08
-1.20781e-09
-1.5878e-08
-1.20349e-09
-1.49878e-08
-1.19677e-09
-1.41045e-08
-1.18759e-09
-1.32298e-08
-1.17592e-09
-1.23657e-08
-1.16175e-09
-1.15139e-08
-1.14506e-09
-1.06764e-08
-1.1258e-09
-9.85514e-09
-1.10398e-09
-9.05193e-09
-1.07958e-09
-8.26872e-09
-1.0526e-09
-7.50743e-09
-1.02303e-09
-6.76995e-09
-9.90885e-10
-6.05818e-09
-9.56177e-10
-5.37399e-09
-9.18932e-10
-4.71922e-09
-8.7918e-10
-4.0957e-09
-8.3696e-10
-3.50519e-09
-7.92326e-10
-2.94941e-09
-7.45343e-10
-2.43001e-09
-6.96095e-10
-1.94857e-09
-6.44687e-10
-1.50657e-09
-5.91247e-10
-1.10536e-09
-5.35934e-10
-7.46142e-10
-4.7894e-10
-4.29938e-10
-4.20503e-10
-1.57556e-10
-3.60912e-10
7.04738e-11
-3.00522e-10
2.53952e-10
-2.39776e-10
3.93095e-10
-1.79225e-10
4.88643e-10
-1.19566e-10
5.41989e-10
-6.16834e-11
5.55365e-10
-6.7153e-12
5.32072e-10
4.38621e-11
4.76778e-10
8.81205e-11
3.95899e-10
1.23531e-10
2.98044e-10
1.46812e-10
1.9446e-10
1.5383e-10
9.92821e-11
1.39637e-10
2.89609e-11
9.93486e-11
3.4172e-11
4.36176e-11
-7.90271e-11
1.36641e-10
-1.93728e-10
2.53215e-10
-2.56482e-10
3.71528e-10
-2.69191e-10
4.73013e-10
-2.41239e-10
5.42629e-10
-1.81948e-10
5.68609e-10
-9.91123e-11
5.42021e-10
1.0015e-12
4.56282e-10
1.13473e-10
3.06694e-10
2.34479e-10
9.01455e-11
3.61026e-10
-1.95298e-10
4.90774e-10
-5.50532e-10
6.21868e-10
-9.75688e-10
7.52868e-10
-1.47024e-09
8.82588e-10
-2.03316e-09
1.01013e-09
-2.66297e-09
1.13472e-09
-3.35787e-09
1.25576e-09
-4.1158e-09
1.37278e-09
-4.93446e-09
1.48538e-09
-5.81137e-09
1.59327e-09
-6.7439e-09
1.69619e-09
-7.72934e-09
1.79397e-09
-8.76485e-09
1.88645e-09
-9.84755e-09
1.97352e-09
-1.09745e-08
2.05511e-09
-1.21427e-08
2.13118e-09
-1.33493e-08
2.20169e-09
-1.45911e-08
2.26663e-09
-1.58652e-08
2.32601e-09
-1.71686e-08
2.37986e-09
-1.84983e-08
2.4282e-09
-1.98514e-08
2.4711e-09
-2.12249e-08
2.5086e-09
-2.2616e-08
2.54076e-09
-2.40217e-08
2.56766e-09
-2.54392e-08
2.58937e-09
-2.68658e-08
2.60598e-09
-2.82988e-08
2.61755e-09
-2.97353e-08
2.6242e-09
-3.11729e-08
2.626e-09
-3.26088e-08
2.62306e-09
-3.40406e-08
2.61546e-09
-3.54658e-08
2.60331e-09
-3.68818e-08
2.58671e-09
-3.82865e-08
2.56576e-09
-3.96773e-08
2.54058e-09
-4.10521e-08
2.51125e-09
-4.24087e-08
2.47789e-09
-4.37449e-08
2.44061e-09
-4.50586e-08
2.39952e-09
-4.63478e-08
2.35472e-09
-4.76105e-08
2.30634e-09
-4.88448e-08
2.25448e-09
-5.00489e-08
2.19924e-09
-5.1221e-08
2.14075e-09
-5.23593e-08
2.07912e-09
-5.34622e-08
2.01447e-09
-5.45282e-08
1.9469e-09
-5.55556e-08
1.87653e-09
-5.6543e-08
1.80347e-09
-5.7489e-08
1.72785e-09
-5.83922e-08
1.64977e-09
-5.92514e-08
1.56937e-09
-6.00654e-08
1.48675e-09
-6.08329e-08
1.40203e-09
-6.1553e-08
1.31532e-09
-6.22245e-08
1.22675e-09
-6.28466e-08
1.13644e-09
-6.34183e-08
1.04451e-09
-6.39389e-08
9.51087e-10
-6.44075e-08
8.56285e-10
-6.48235e-08
7.60232e-10
-6.51863e-08
6.63054e-10
-6.54953e-08
5.64877e-10
-6.57501e-08
4.65828e-10
-6.59502e-08
3.66034e-10
-6.60953e-08
2.65623e-10
-6.61852e-08
1.64725e-10
-6.62196e-08
6.34705e-11
-6.61985e-08
-3.80067e-11
-6.61217e-08
-1.39573e-10
-6.59894e-08
-2.41094e-10
-6.58015e-08
-3.42435e-10
-6.55584e-08
-4.43459e-10
-6.52601e-08
-5.44027e-10
-6.49072e-08
-6.44e-10
-6.45e-08
-7.43237e-10
-6.40389e-08
-8.41595e-10
-6.35245e-08
-9.38929e-10
-6.29575e-08
-1.0351e-09
-6.23386e-08
-1.12995e-09
-6.16686e-08
-1.22336e-09
-6.09483e-08
-1.31516e-09
-6.01788e-08
-1.40522e-09
-5.9361e-08
-1.4934e-09
-5.84961e-08
-1.57953e-09
-5.75852e-08
-1.66348e-09
-5.66298e-08
-1.7451e-09
-5.5631e-08
-1.82425e-09
-5.45904e-08
-1.90078e-09
-5.35095e-08
-1.97454e-09
-5.23898e-08
-2.04539e-09
-5.1233e-08
-2.11319e-09
-5.0041e-08
-2.17779e-09
-4.88154e-08
-2.23905e-09
-4.75583e-08
-2.29682e-09
-4.62716e-08
-2.35098e-09
-4.49573e-08
-2.40138e-09
-4.36176e-08
-2.44789e-09
-4.22547e-08
-2.49039e-09
-4.08709e-08
-2.52873e-09
-3.94684e-08
-2.5628e-09
-3.80497e-08
-2.59247e-09
-3.66173e-08
-2.61762e-09
-3.51737e-08
-2.63814e-09
-3.37215e-08
-2.65392e-09
-3.22633e-08
-2.66484e-09
-3.08018e-08
-2.67082e-09
-2.93398e-08
-2.67174e-09
-2.78801e-08
-2.66752e-09
-2.64255e-08
-2.65807e-09
-2.49789e-08
-2.64332e-09
-2.35433e-08
-2.62318e-09
-2.21217e-08
-2.59761e-09
-2.07169e-08
-2.56654e-09
-1.9332e-08
-2.52993e-09
-1.79701e-08
-2.48773e-09
-1.66341e-08
-2.43992e-09
-1.53272e-08
-2.38649e-09
-1.40524e-08
-2.32741e-09
-1.28127e-08
-2.26272e-09
-1.16112e-08
-2.19242e-09
-1.04508e-08
-2.11656e-09
-9.33451e-09
-2.03521e-09
-8.26525e-09
-1.94844e-09
-7.24585e-09
-1.85635e-09
-6.27909e-09
-1.75909e-09
-5.36763e-09
-1.65681e-09
-4.51401e-09
-1.54971e-09
-3.72064e-09
-1.43805e-09
-2.98976e-09
-1.32213e-09
-2.32338e-09
-1.20232e-09
-1.72325e-09
-1.07907e-09
-1.19083e-09
-9.52922e-10
-7.27199e-10
-8.24537e-10
-3.32997e-10
-6.94724e-10
-8.30183e-12
-5.6447e-10
2.47469e-10
-4.34995e-10
4.35718e-10
-3.07814e-10
5.58851e-10
-1.84815e-10
6.20508e-10
-6.83725e-11
6.25852e-10
3.85194e-11
5.81896e-10
1.32078e-10
4.97888e-10
2.0754e-10
3.85708e-10
2.58992e-10
2.60223e-10
2.79316e-10
1.39436e-10
2.60425e-10
4.43177e-11
1.94469e-10
7.84915e-11
4.85889e-11
-1.27621e-10
1.47599e-10
-2.92738e-10
2.65208e-10
-3.74093e-10
3.76289e-10
-3.80281e-10
4.59902e-10
-3.24847e-10
4.98842e-10
-2.20889e-10
4.79326e-10
-7.95961e-11
3.90566e-10
8.97655e-11
2.2435e-10
2.79689e-10
-2.53333e-11
4.84168e-10
-3.62682e-10
6.98364e-10
-7.90344e-10
9.18436e-10
-1.30976e-09
1.14129e-09
-1.92131e-09
1.36441e-09
-2.62453e-09
1.58581e-09
-3.41825e-09
1.80385e-09
-4.30074e-09
2.01721e-09
-5.26979e-09
2.22481e-09
-6.3228e-09
2.42579e-09
-7.45684e-09
2.61943e-09
-8.66875e-09
2.80518e-09
-9.95513e-09
2.98257e-09
-1.13124e-08
3.15125e-09
-1.27369e-08
3.31094e-09
-1.42248e-08
3.46143e-09
-1.57722e-08
3.60254e-09
-1.73753e-08
3.7342e-09
-1.90299e-08
3.8563e-09
-2.07321e-08
3.96884e-09
-2.24779e-08
4.0718e-09
-2.42632e-08
4.16522e-09
-2.60842e-08
4.24914e-09
-2.79367e-08
4.32362e-09
-2.98168e-08
4.38874e-09
-3.17207e-08
4.44463e-09
-3.36444e-08
4.49137e-09
-3.55841e-08
4.5291e-09
-3.75361e-08
4.55794e-09
-3.94966e-08
4.57804e-09
-4.14619e-08
4.58955e-09
-4.34286e-08
4.59263e-09
-4.53929e-08
4.58742e-09
-4.73516e-08
4.57411e-09
-4.93011e-08
4.55285e-09
-5.12382e-08
4.52382e-09
-5.31597e-08
4.48719e-09
-5.50622e-08
4.44316e-09
-5.69429e-08
4.39189e-09
-5.87986e-08
4.33358e-09
-6.06264e-08
4.26841e-09
-6.24234e-08
4.19657e-09
-6.41869e-08
4.11825e-09
-6.59143e-08
4.03365e-09
-6.76027e-08
3.94296e-09
-6.92499e-08
3.84637e-09
-7.08532e-08
3.74408e-09
-7.24104e-08
3.63629e-09
-7.39191e-08
3.5232e-09
-7.53772e-08
3.40501e-09
-7.67826e-08
3.28191e-09
-7.81332e-08
3.15411e-09
-7.94272e-08
3.02182e-09
-8.06626e-08
2.88523e-09
-8.18378e-08
2.74455e-09
-8.29511e-08
2.59999e-09
-8.40008e-08
2.45176e-09
-8.49855e-08
2.30006e-09
-8.59039e-08
2.14509e-09
-8.67545e-08
1.98708e-09
-8.75363e-08
1.82624e-09
-8.82479e-08
1.66278e-09
-8.88886e-08
1.49691e-09
-8.94572e-08
1.32885e-09
-8.9953e-08
1.15883e-09
-9.03751e-08
9.87057e-10
-9.07231e-08
8.13767e-10
-9.09962e-08
6.39179e-10
-9.11941e-08
4.63519e-10
-9.13164e-08
2.87011e-10
-9.13628e-08
1.09887e-10
-9.13332e-08
-6.762e-11
-9.12275e-08
-2.45274e-10
-9.10458e-08
-4.22841e-10
-9.07881e-08
-6.00081e-10
-9.04548e-08
-7.76756e-10
-9.00462e-08
-9.52624e-10
-8.95628e-08
-1.12744e-09
-8.90051e-08
-1.30096e-09
-8.83737e-08
-1.47293e-09
-8.76696e-08
-1.6431e-09
-8.68934e-08
-1.81122e-09
-8.60463e-08
-1.97704e-09
-8.51294e-08
-2.14031e-09
-8.41438e-08
-2.30078e-09
-8.30908e-08
-2.45818e-09
-8.19719e-08
-2.61227e-09
-8.07887e-08
-2.76279e-09
-7.95427e-08
-2.90948e-09
-7.82357e-08
-3.05209e-09
-7.68696e-08
-3.19036e-09
-7.54463e-08
-3.32405e-09
-7.3968e-08
-3.4529e-09
-7.24367e-08
-3.57665e-09
-7.08548e-08
-3.69506e-09
-6.92248e-08
-3.80787e-09
-6.7549e-08
-3.91483e-09
-6.58301e-08
-4.01572e-09
-6.40708e-08
-4.11028e-09
-6.22739e-08
-4.19827e-09
-6.04423e-08
-4.27948e-09
-5.8579e-08
-4.35367e-09
-5.66871e-08
-4.42062e-09
-5.47698e-08
-4.4801e-09
-5.28304e-08
-4.53191e-09
-5.08722e-08
-4.57583e-09
-4.88986e-08
-4.61168e-09
-4.69133e-08
-4.63926e-09
-4.49197e-08
-4.65839e-09
-4.29217e-08
-4.6689e-09
-4.09228e-08
-4.67062e-09
-3.89269e-08
-4.66338e-09
-3.69379e-08
-4.64706e-09
-3.49597e-08
-4.62152e-09
-3.29963e-08
-4.58663e-09
-3.10516e-08
-4.5423e-09
-2.91297e-08
-4.48843e-09
-2.72347e-08
-4.42495e-09
-2.53706e-08
-4.3518e-09
-2.35416e-08
-4.26894e-09
-2.17517e-08
-4.17634e-09
-2.00051e-08
-4.07402e-09
-1.83059e-08
-3.962e-09
-1.66579e-08
-3.84033e-09
-1.50654e-08
-3.7091e-09
-1.35322e-08
-3.56844e-09
-1.20621e-08
-3.4185e-09
-1.0659e-08
-3.25949e-09
-9.32641e-09
-3.09165e-09
-8.06791e-09
-2.91531e-09
-6.88679e-09
-2.73083e-09
-5.78616e-09
-2.53868e-09
-4.76886e-09
-2.33942e-09
-3.83746e-09
-2.13373e-09
-2.99413e-09
-1.9224e-09
-2.24064e-09
-1.70641e-09
-1.57823e-09
-1.48694e-09
-1.00754e-09
-1.26541e-09
-5.28483e-10
-1.04353e-09
-1.40077e-10
-8.234e-10
1.59693e-10
-6.07583e-10
3.74105e-10
-3.99227e-10
5.07941e-10
-2.02208e-10
5.67772e-10
-2.13095e-11
5.62277e-10
1.37576e-10
5.02585e-10
2.67233e-10
4.02633e-10
3.58945e-10
2.7951e-10
4.02439e-10
1.53798e-10
3.86139e-10
5.01275e-11
2.98139e-10
1.28619e-10
4.65898e-11
-1.74215e-10
1.37744e-10
-3.83881e-10
2.3868e-10
-4.75027e-10
3.22251e-10
-4.63849e-10
3.66108e-10
-3.68701e-10
3.51823e-10
-2.06608e-10
2.64452e-10
7.77375e-12
9.20594e-11
2.62154e-10
-1.74607e-10
5.46358e-10
-5.42487e-10
8.5205e-10
-1.01656e-09
1.17243e-09
-1.60007e-09
1.50195e-09
-2.29487e-09
1.83609e-09
-3.10159e-09
2.17114e-09
-4.01987e-09
2.50409e-09
-5.04847e-09
2.83244e-09
-6.18545e-09
3.15419e-09
-7.4283e-09
3.46766e-09
-8.77399e-09
3.77148e-09
-1.02191e-08
4.06454e-09
-1.17599e-08
4.34594e-09
-1.33922e-08
4.61493e-09
-1.51119e-08
4.87093e-09
-1.69144e-08
5.11348e-09
-1.87952e-08
5.34222e-09
-2.07495e-08
5.55687e-09
-2.27726e-08
5.75724e-09
-2.48595e-08
5.94318e-09
-2.70053e-08
6.11465e-09
-2.92051e-08
6.2716e-09
-3.14539e-08
6.41405e-09
-3.37468e-08
6.54206e-09
-3.60789e-08
6.65571e-09
-3.84453e-08
6.75512e-09
-4.08411e-08
6.84041e-09
-4.32615e-08
6.91175e-09
-4.57017e-08
6.96932e-09
-4.81571e-08
7.0133e-09
-5.06229e-08
7.04391e-09
-5.30947e-08
7.06136e-09
-5.5568e-08
7.06588e-09
-5.80382e-08
7.05771e-09
-6.05012e-08
7.0371e-09
-6.29527e-08
7.00429e-09
-6.53884e-08
6.95956e-09
-6.78044e-08
6.90318e-09
-7.01966e-08
6.8354e-09
-7.25613e-08
6.75651e-09
-7.48945e-08
6.66679e-09
-7.71926e-08
6.56652e-09
-7.9452e-08
6.456e-09
-8.16693e-08
6.33552e-09
-8.3841e-08
6.20536e-09
-8.59639e-08
6.06583e-09
-8.80347e-08
5.91723e-09
-9.00505e-08
5.75986e-09
-9.20082e-08
5.59401e-09
-9.3905e-08
5.42e-09
-9.57382e-08
5.23814e-09
-9.7505e-08
5.04872e-09
-9.92029e-08
4.85207e-09
-1.0083e-07
4.64849e-09
-1.02383e-07
4.4383e-09
-1.0386e-07
4.22181e-09
-1.05259e-07
3.99935e-09
-1.06579e-07
3.77123e-09
-1.07816e-07
3.53776e-09
-1.08971e-07
3.29928e-09
-1.1004e-07
3.05611e-09
-1.11022e-07
2.80859e-09
-1.11916e-07
2.55703e-09
-1.12721e-07
2.30177e-09
-1.13435e-07
2.04315e-09
-1.14058e-07
1.78151e-09
-1.14588e-07
1.51718e-09
-1.15025e-07
1.25052e-09
-1.15368e-07
9.81874e-10
-1.15616e-07
7.11581e-10
-1.15769e-07
4.39996e-10
-1.15826e-07
1.67473e-10
-1.15788e-07
-1.05628e-10
-1.15655e-07
-3.78946e-10
-1.15425e-07
-6.52116e-10
-1.15101e-07
-9.24773e-10
-1.14681e-07
-1.19654e-09
-1.14166e-07
-1.46706e-09
-1.13558e-07
-1.73594e-09
-1.12856e-07
-2.00282e-09
-1.12062e-07
-2.26729e-09
-1.11176e-07
-2.52899e-09
-1.102e-07
-2.78752e-09
-1.09134e-07
-3.0425e-09
-1.07981e-07
-3.29354e-09
-1.06741e-07
-3.54025e-09
-1.05417e-07
-3.78225e-09
-1.0401e-07
-4.01913e-09
-1.02523e-07
-4.25051e-09
-1.00956e-07
-4.47599e-09
-9.93132e-08
-4.69518e-09
-9.75958e-08
-4.9077e-09
-9.58067e-08
-5.11315e-09
-9.39485e-08
-5.31115e-09
-9.20238e-08
-5.50131e-09
-9.00356e-08
-5.68325e-09
-8.79869e-08
-5.85658e-09
-8.58808e-08
-6.02093e-09
-8.37206e-08
-6.17593e-09
-8.15097e-08
-6.3212e-09
-7.92515e-08
-6.4564e-09
-7.69499e-08
-6.58117e-09
-7.46084e-08
-6.69516e-09
-7.2231e-08
-6.79802e-09
-6.98216e-08
-6.88944e-09
-6.73845e-08
-6.96908e-09
-6.49237e-08
-7.03663e-09
-6.24435e-08
-7.0918e-09
-5.99485e-08
-7.13429e-09
-5.74431e-08
-7.16383e-09
-5.49318e-08
-7.18016e-09
-5.24194e-08
-7.18304e-09
-4.99106e-08
-7.17222e-09
-4.74101e-08
-7.1475e-09
-4.4923e-08
-7.10868e-09
-4.2454e-08
-7.05559e-09
-4.00082e-08
-6.98807e-09
-3.75907e-08
-6.906e-09
-3.52064e-08
-6.80926e-09
-3.28604e-08
-6.69779e-09
-3.05578e-08
-6.57154e-09
-2.83036e-08
-6.43048e-09
-2.6103e-08
-6.27464e-09
-2.39609e-08
-6.10408e-09
-2.18823e-08
-5.91891e-09
-1.98722e-08
-5.71927e-09
-1.79353e-08
-5.50537e-09
-1.60763e-08
-5.27749e-09
-1.42998e-08
-5.03595e-09
-1.26103e-08
-4.78118e-09
-1.10119e-08
-4.51368e-09
-9.50868e-09
-4.23407e-09
-8.10428e-09
-3.94309e-09
-6.80207e-09
-3.64162e-09
-5.60506e-09
-3.33074e-09
-4.51577e-09
-3.01169e-09
-3.53618e-09
-2.686e-09
-2.66764e-09
-2.35548e-09
-1.91077e-09
-2.02228e-09
-1.26528e-09
-1.68902e-09
-7.29858e-10
-1.35882e-09
-3.01978e-10
-1.03546e-09
2.23227e-11
-7.23526e-10
2.48669e-10
-4.28553e-10
3.84621e-10
-1.57263e-10
4.39969e-10
8.22285e-11
4.27034e-10
2.80169e-10
3.6101e-10
4.24969e-10
2.60364e-10
5.03087e-10
1.47354e-10
4.99152e-10
4.89936e-11
3.96497e-10
1.77612e-10
3.96597e-11
-2.13877e-10
1.12004e-10
-4.5623e-10
1.81853e-10
-5.44876e-10
2.21361e-10
-5.03362e-10
2.07594e-10
-3.54934e-10
1.2161e-10
-1.20615e-10
-5.21114e-11
1.81493e-10
-3.26074e-10
5.36119e-10
-7.10138e-10
9.30422e-10
-1.21182e-09
1.35373e-09
-1.83657e-09
1.79719e-09
-2.5881e-09
2.25346e-09
-3.46849e-09
2.71649e-09
-4.47862e-09
3.18127e-09
-5.61814e-09
3.64361e-09
-6.88581e-09
4.10011e-09
-8.27951e-09
4.5479e-09
-9.79648e-09
4.98463e-09
-1.14333e-08
5.40835e-09
-1.31862e-08
5.81745e-09
-1.50509e-08
6.21061e-09
-1.70227e-08
6.58675e-09
-1.90968e-08
6.94501e-09
-2.1268e-08
7.28468e-09
-2.3531e-08
7.60521e-09
-2.58803e-08
7.90619e-09
-2.83104e-08
8.18728e-09
-3.08155e-08
8.44829e-09
-3.33899e-08
8.68906e-09
-3.60278e-08
8.90954e-09
-3.87235e-08
9.10972e-09
-4.14711e-08
9.28965e-09
-4.42648e-08
9.44942e-09
-4.70989e-08
9.58917e-09
-4.99675e-08
9.70908e-09
-5.28651e-08
9.80935e-09
-5.5786e-08
9.89022e-09
-5.87247e-08
9.95193e-09
-6.16755e-08
9.99477e-09
-6.46332e-08
1.0019e-08
-6.75924e-08
1.0025e-08
-7.05478e-08
1.00131e-08
-7.34943e-08
9.9836e-09
-7.64268e-08
9.93684e-09
-7.93405e-08
9.8732e-09
-8.22303e-08
9.79305e-09
-8.50917e-08
9.69678e-09
-8.792e-08
9.58477e-09
-9.07106e-08
9.45742e-09
-9.34592e-08
9.31512e-09
-9.61615e-08
9.15828e-09
-9.88133e-08
8.98731e-09
-1.01411e-07
8.80263e-09
-1.03949e-07
8.60465e-09
-1.06426e-07
8.3938e-09
-1.08837e-07
8.17051e-09
-1.11178e-07
7.93519e-09
-1.13446e-07
7.68829e-09
-1.15638e-07
7.43024e-09
-1.17751e-07
7.16147e-09
-1.19781e-07
6.88243e-09
-1.21726e-07
6.59356e-09
-1.23583e-07
6.29531e-09
-1.2535e-07
5.98812e-09
-1.27023e-07
5.67245e-09
-1.286e-07
5.34874e-09
-1.3008e-07
5.01745e-09
-1.3146e-07
4.67906e-09
-1.32738e-07
4.334e-09
-1.33912e-07
3.98277e-09
-1.34981e-07
3.62582e-09
-1.35943e-07
3.26362e-09
-1.36796e-07
2.89666e-09
-1.3754e-07
2.52542e-09
-1.38173e-07
2.15039e-09
-1.38695e-07
1.77204e-09
-1.39104e-07
1.39088e-09
-1.39399e-07
1.0074e-09
-1.39582e-07
6.22104e-10
-1.3965e-07
2.35489e-10
-1.39603e-07
-1.51932e-10
-1.39443e-07
-5.39646e-10
-1.39168e-07
-9.27134e-10
-1.38778e-07
-1.31388e-09
-1.38276e-07
-1.69935e-09
-1.3766e-07
-2.08302e-09
-1.36931e-07
-2.46436e-09
-1.36091e-07
-2.84282e-09
-1.35141e-07
-3.21787e-09
-1.34081e-07
-3.58896e-09
-1.32913e-07
-3.95555e-09
-1.31638e-07
-4.31708e-09
-1.30259e-07
-4.67301e-09
-1.28776e-07
-5.02278e-09
-1.27193e-07
-5.36585e-09
-1.2551e-07
-5.70165e-09
-1.23731e-07
-6.02963e-09
-1.21858e-07
-6.34924e-09
-1.19893e-07
-6.65993e-09
-1.17839e-07
-6.96114e-09
-1.157e-07
-7.25231e-09
-1.13479e-07
-7.53292e-09
-1.11177e-07
-7.8024e-09
-1.088e-07
-8.06022e-09
-1.06351e-07
-8.30584e-09
-1.03833e-07
-8.53874e-09
-1.01251e-07
-8.75838e-09
-9.86079e-08
-8.96425e-09
-9.59085e-08
-9.15585e-09
-9.3157e-08
-9.33267e-09
-9.03579e-08
-9.49424e-09
-8.75159e-08
-9.64006e-09
-8.46356e-08
-9.76968e-09
-8.1722e-08
-9.88265e-09
-7.87801e-08
-9.97853e-09
-7.5815e-08
-1.00569e-08
-7.2832e-08
-1.01174e-08
-6.98363e-08
-1.01595e-08
-6.68334e-08
-1.0183e-08
-6.38289e-08
-1.01876e-08
-6.08283e-08
-1.01728e-08
-5.78375e-08
-1.01383e-08
-5.48621e-08
-1.00841e-08
-5.1908e-08
-1.00097e-08
-4.89812e-08
-9.91496e-09
-4.60874e-08
-9.79977e-09
-4.32327e-08
-9.66396e-09
-4.0423e-08
-9.50745e-09
-3.76644e-08
-9.33018e-09
-3.49627e-08
-9.13214e-09
-3.2324e-08
-8.91339e-09
-2.9754e-08
-8.67403e-09
-2.72587e-08
-8.41424e-09
-2.48437e-08
-8.13425e-09
-2.25147e-08
-7.83439e-09
-2.02771e-08
-7.51507e-09
-1.81363e-08
-7.1768e-09
-1.60973e-08
-6.82019e-09
-1.41649e-08
-6.44601e-09
-1.23438e-08
-6.05515e-09
-1.06382e-08
-5.64871e-09
-9.05188e-09
-5.22797e-09
-7.58816e-09
-4.79445e-09
-6.24989e-09
-4.34997e-09
-5.03921e-09
-3.89667e-09
-3.95758e-09
-3.43711e-09
-3.00557e-09
-2.9743e-09
-2.18274e-09
-2.51185e-09
-1.48754e-09
-2.05402e-09
-9.17052e-10
-1.60595e-09
-4.6684e-10
-1.17374e-09
-1.3071e-10
-7.64681e-10
9.95275e-11
-3.875e-10
2.34328e-10
-5.2572e-11
2.86693e-10
2.27805e-10
2.72498e-10
4.39162e-10
2.10931e-10
5.64655e-10
1.25082e-10
5.85002e-10
4.29797e-11
4.786e-10
2.20591e-10
2.93341e-11
-2.43214e-10
7.46202e-11
-5.01507e-10
1.02025e-10
-5.72277e-10
8.41386e-11
-4.85477e-10
-1.77524e-12
-2.6902e-10
-1.74618e-10
5.22175e-11
-4.49966e-10
4.56847e-10
-8.40496e-10
9.26648e-10
-1.35629e-09
1.44622e-09
-2.00513e-09
2.00257e-09
-2.79271e-09
2.58476e-09
-3.72294e-09
3.1837e-09
-4.79811e-09
3.79167e-09
-6.01917e-09
4.40231e-09
-7.38579e-09
5.01023e-09
-8.89664e-09
5.61096e-09
-1.05495e-08
6.20075e-09
-1.23413e-08
6.77647e-09
-1.42685e-08
7.33551e-09
-1.63268e-08
7.87569e-09
-1.85114e-08
8.39524e-09
-2.08173e-08
8.89265e-09
-2.3239e-08
9.36672e-09
-2.57708e-08
9.81648e-09
-2.84067e-08
1.02411e-08
-3.11406e-08
1.06401e-08
-3.39663e-08
1.10129e-08
-3.68771e-08
1.13592e-08
-3.98668e-08
1.16787e-08
-4.29287e-08
1.19715e-08
-4.60563e-08
1.22373e-08
-4.92429e-08
1.24763e-08
-5.2482e-08
1.26885e-08
-5.57669e-08
1.28741e-08
-5.90912e-08
1.30333e-08
-6.24483e-08
1.31664e-08
-6.58317e-08
1.32737e-08
-6.92352e-08
1.33554e-08
-7.26524e-08
1.34119e-08
-7.60771e-08
1.34437e-08
-7.95031e-08
1.34511e-08
-8.29245e-08
1.34345e-08
-8.63353e-08
1.33944e-08
-8.97297e-08
1.33313e-08
-9.3102e-08
1.32455e-08
-9.64467e-08
1.31377e-08
-9.97582e-08
1.30083e-08
-1.03031e-07
1.28578e-08
-1.06261e-07
1.26868e-08
-1.09441e-07
1.24957e-08
-1.12568e-07
1.22852e-08
-1.15637e-07
1.20557e-08
-1.18642e-07
1.18079e-08
-1.21579e-07
1.15422e-08
-1.24445e-07
1.12593e-08
-1.27234e-07
1.09596e-08
-1.29943e-07
1.06439e-08
-1.32567e-07
1.03126e-08
-1.35103e-07
9.96633e-09
-1.37547e-07
9.60569e-09
-1.39896e-07
9.23128e-09
-1.42146e-07
8.84367e-09
-1.44294e-07
8.44348e-09
-1.46338e-07
8.03129e-09
-1.48273e-07
7.60772e-09
-1.50098e-07
7.17337e-09
-1.51809e-07
6.72886e-09
-1.53405e-07
6.27481e-09
-1.54883e-07
5.81184e-09
-1.5624e-07
5.34057e-09
-1.57476e-07
4.86165e-09
-1.58588e-07
4.37569e-09
-1.59575e-07
3.88336e-09
-1.60435e-07
3.38529e-09
-1.61167e-07
2.88213e-09
-1.61769e-07
2.37456e-09
-1.62241e-07
1.86321e-09
-1.62583e-07
1.34877e-09
-1.62793e-07
8.31899e-10
-1.6287e-07
3.13283e-10
-1.62816e-07
-2.06394e-10
-1.62629e-07
-7.26445e-10
-1.6231e-07
-1.24617e-09
-1.61859e-07
-1.76488e-09
-1.61277e-07
-2.28187e-09
-1.60563e-07
-2.79641e-09
-1.5972e-07
-3.30781e-09
-1.58747e-07
-3.81532e-09
-1.57647e-07
-4.31824e-09
-1.5642e-07
-4.81583e-09
-1.55068e-07
-5.30735e-09
-1.53593e-07
-5.79208e-09
-1.51997e-07
-6.26928e-09
-1.50281e-07
-6.73821e-09
-1.48449e-07
-7.19812e-09
-1.46503e-07
-7.64828e-09
-1.44444e-07
-8.08794e-09
-1.42277e-07
-8.51635e-09
-1.40004e-07
-8.93279e-09
-1.37629e-07
-9.33651e-09
-1.35154e-07
-9.72678e-09
-1.32584e-07
-1.01029e-08
-1.29923e-07
-1.0464e-08
-1.27173e-07
-1.08096e-08
-1.24341e-07
-1.11388e-08
-1.21428e-07
-1.14509e-08
-1.18441e-07
-1.17453e-08
-1.15384e-07
-1.20213e-08
-1.12262e-07
-1.22781e-08
-1.0908e-07
-1.25152e-08
-1.05842e-07
-1.27318e-08
-1.02555e-07
-1.29274e-08
-9.92233e-08
-1.31013e-08
-9.5853e-08
-1.32529e-08
-9.24498e-08
-1.33817e-08
-8.90196e-08
-1.34871e-08
-8.55684e-08
-1.35686e-08
-8.21024e-08
-1.36256e-08
-7.86277e-08
-1.36577e-08
-7.51508e-08
-1.36645e-08
-7.1678e-08
-1.36455e-08
-6.8216e-08
-1.36003e-08
-6.47714e-08
-1.35287e-08
-6.13508e-08
-1.34303e-08
-5.79609e-08
-1.33048e-08
-5.46086e-08
-1.31521e-08
-5.13006e-08
-1.2972e-08
-4.80437e-08
-1.27643e-08
-4.48448e-08
-1.25291e-08
-4.17107e-08
-1.22663e-08
-3.8648e-08
-1.19761e-08
-3.56634e-08
-1.16586e-08
-3.27637e-08
-1.1314e-08
-2.99551e-08
-1.09428e-08
-2.72441e-08
-1.05454e-08
-2.46368e-08
-1.01223e-08
-2.21392e-08
-9.6744e-09
-1.9757e-08
-9.2024e-09
-1.74956e-08
-8.70742e-09
-1.53601e-08
-8.19069e-09
-1.33551e-08
-7.65371e-09
-1.14848e-08
-7.09821e-09
-9.75299e-09
-6.52627e-09
-8.16264e-09
-5.94032e-09
-6.7161e-09
-5.34321e-09
-5.4149e-09
-4.73831e-09
-4.2596e-09
-4.1296e-09
-3.24972e-09
-3.52173e-09
-2.3835e-09
-2.92024e-09
-1.65783e-09
-2.33162e-09
-1.06798e-09
-1.76359e-09
-6.07436e-10
-1.22522e-09
-2.67682e-10
-7.27252e-10
-3.79535e-11
-2.82298e-10
9.50183e-11
9.4834e-11
1.47327e-10
3.86853e-10
1.38308e-10
5.73675e-10
9.11084e-11
6.32201e-10
3.35786e-11
5.36131e-10
2.5417e-10
1.67525e-11
-2.59964e-10
2.89337e-11
-5.13696e-10
5.15521e-12
-5.48497e-10
-8.06553e-11
-3.99666e-10
-2.50397e-10
-9.92798e-11
-5.22426e-10
3.24249e-10
-9.11992e-10
8.46406e-10
-1.43156e-09
1.44622e-09
-2.09113e-09
2.10579e-09
-2.89847e-09
2.8099e-09
-3.85931e-09
3.54562e-09
-4.9776e-09
4.30198e-09
-6.25567e-09
5.06974e-09
-7.69441e-09
5.84105e-09
-9.29349e-09
6.60932e-09
-1.10515e-08
7.36895e-09
-1.2966e-08
8.11523e-09
-1.50337e-08
8.84421e-09
-1.72507e-08
9.55256e-09
-1.96125e-08
1.02375e-08
-2.2114e-08
1.08967e-08
-2.47494e-08
1.15281e-08
-2.75131e-08
1.21304e-08
-3.03986e-08
1.2702e-08
-3.33994e-08
1.3242e-08
-3.65088e-08
1.37495e-08
-3.97199e-08
1.4224e-08
-4.30256e-08
1.46648e-08
-4.64186e-08
1.50718e-08
-4.98919e-08
1.54447e-08
-5.34379e-08
1.57834e-08
-5.70495e-08
1.60878e-08
-6.07193e-08
1.63582e-08
-6.44398e-08
1.65947e-08
-6.8204e-08
1.67975e-08
-7.20044e-08
1.69669e-08
-7.58339e-08
1.71032e-08
-7.96854e-08
1.72069e-08
-8.35518e-08
1.72783e-08
-8.74261e-08
1.7318e-08
-9.13015e-08
1.73265e-08
-9.51713e-08
1.73042e-08
-9.90287e-08
1.72518e-08
-1.02867e-07
1.71698e-08
-1.06681e-07
1.70588e-08
-1.10462e-07
1.69195e-08
-1.14206e-07
1.67524e-08
-1.17907e-07
1.65582e-08
-1.21557e-07
1.63376e-08