/*--------------------------------*- C++ -*----------------------------------*\
  =========                 |
  \\      /  F ield         | OpenFOAM: The Open Source CFD Toolbox
   \\    /   O peration     | Website:  https://openfoam.org
    \\  /    A nd           | Version:  7
     \\/     M anipulation  |
\*---------------------------------------------------------------------------*/
FoamFile
{
    version     2.0;
    format      ascii;
    class       volVectorField;
    location    "0.1375";
    object      U;
}
// * * * * * * * * * * * * * * * * * * * * * * * * * * * * * * * * * * * * * //

dimensions      [0 1 -1 0 0 0 0];

internalField   nonuniform List<vector> 
25600
(
(1.98895e-07 -1.49838e-07 0)
(2.80962e-06 -1.7918e-06 0)
(9.11337e-06 -2.90999e-06 0)
(1.70432e-05 -3.27153e-06 0)
(2.50776e-05 -3.14968e-06 0)
(3.22123e-05 -2.74614e-06 0)
(3.78145e-05 -2.16153e-06 0)
(4.14511e-05 -1.47581e-06 0)
(4.28297e-05 -7.25548e-07 0)
(4.17721e-05 6.49566e-08 0)
(3.81614e-05 8.68978e-07 0)
(3.19402e-05 1.67565e-06 0)
(2.30917e-05 2.47666e-06 0)
(1.1622e-05 3.2641e-06 0)
(-2.43591e-06 4.03399e-06 0)
(-1.90268e-05 4.78284e-06 0)
(-3.80915e-05 5.51048e-06 0)
(-5.95536e-05 6.20944e-06 0)
(-8.33265e-05 6.87782e-06 0)
(-0.00010932 7.51785e-06 0)
(-0.000137439 8.12802e-06 0)
(-0.000167585 8.70431e-06 0)
(-0.000199651 9.24742e-06 0)
(-0.000233535 9.76019e-06 0)
(-0.000269131 1.02415e-05 0)
(-0.000306331 1.06909e-05 0)
(-0.000345027 1.11085e-05 0)
(-0.000385111 1.14938e-05 0)
(-0.000426475 1.18473e-05 0)
(-0.000469012 1.21679e-05 0)
(-0.000512615 1.24572e-05 0)
(-0.000557179 1.27177e-05 0)
(-0.0006026 1.29488e-05 0)
(-0.000648773 1.31498e-05 0)
(-0.0006956 1.33209e-05 0)
(-0.000742978 1.34641e-05 0)
(-0.000790808 1.35793e-05 0)
(-0.000838996 1.36668e-05 0)
(-0.000887446 1.37271e-05 0)
(-0.000936063 1.37603e-05 0)
(-0.000984758 1.3768e-05 0)
(-0.00103344 1.3752e-05 0)
(-0.00108202 1.37119e-05 0)
(-0.00113042 1.36474e-05 0)
(-0.00117855 1.35585e-05 0)
(-0.00122633 1.34465e-05 0)
(-0.00127367 1.33126e-05 0)
(-0.00132051 1.31579e-05 0)
(-0.00136677 1.29826e-05 0)
(-0.00141237 1.27863e-05 0)
(-0.00145724 1.25692e-05 0)
(-0.00150131 1.23328e-05 0)
(-0.00154452 1.20781e-05 0)
(-0.00158679 1.18058e-05 0)
(-0.00162807 1.1516e-05 0)
(-0.0016683 1.12091e-05 0)
(-0.00170741 1.08861e-05 0)
(-0.00174535 1.05477e-05 0)
(-0.00178206 1.0194e-05 0)
(-0.0018175 9.82575e-06 0)
(-0.00185161 9.44354e-06 0)
(-0.00188434 9.0481e-06 0)
(-0.00191564 8.63983e-06 0)
(-0.00194548 8.21928e-06 0)
(-0.00197381 7.78735e-06 0)
(-0.00200059 7.3449e-06 0)
(-0.00202578 6.8924e-06 0)
(-0.00204935 6.43005e-06 0)
(-0.00207127 5.95826e-06 0)
(-0.00209149 5.47791e-06 0)
(-0.00211 4.98982e-06 0)
(-0.00212677 4.49463e-06 0)
(-0.00214177 3.99294e-06 0)
(-0.00215499 3.48532e-06 0)
(-0.00216639 2.97243e-06 0)
(-0.00217597 2.455e-06 0)
(-0.00218371 1.93365e-06 0)
(-0.00218959 1.409e-06 0)
(-0.00219361 8.81679e-07 0)
(-0.00219576 3.52244e-07 0)
(-0.00219602 -1.78631e-07 0)
(-0.00219441 -7.10153e-07 0)
(-0.00219092 -1.24149e-06 0)
(-0.00218555 -1.77187e-06 0)
(-0.0021783 -2.30071e-06 0)
(-0.00216918 -2.82756e-06 0)
(-0.00215821 -3.35168e-06 0)
(-0.00214538 -3.87218e-06 0)
(-0.00213073 -4.38818e-06 0)
(-0.00211426 -4.89887e-06 0)
(-0.00209599 -5.4035e-06 0)
(-0.00207595 -5.90141e-06 0)
(-0.00205417 -6.39197e-06 0)
(-0.00203066 -6.87441e-06 0)
(-0.00200547 -7.34795e-06 0)
(-0.00197862 -7.81176e-06 0)
(-0.00195015 -8.26498e-06 0)
(-0.0019201 -8.70687e-06 0)
(-0.00188851 -9.13676e-06 0)
(-0.00185543 -9.5539e-06 0)
(-0.0018209 -9.95749e-06 0)
(-0.00178498 -1.03468e-05 0)
(-0.0017477 -1.07211e-05 0)
(-0.00170914 -1.10794e-05 0)
(-0.00166934 -1.14209e-05 0)
(-0.00162837 -1.1745e-05 0)
(-0.0015863 -1.20509e-05 0)
(-0.00154317 -1.23377e-05 0)
(-0.00149908 -1.26048e-05 0)
(-0.00145408 -1.28515e-05 0)
(-0.00140825 -1.30772e-05 0)
(-0.00136166 -1.3281e-05 0)
(-0.0013144 -1.34623e-05 0)
(-0.00126655 -1.36202e-05 0)
(-0.00121818 -1.37541e-05 0)
(-0.00116938 -1.38636e-05 0)
(-0.00112025 -1.3948e-05 0)
(-0.00107086 -1.40067e-05 0)
(-0.00102132 -1.40388e-05 0)
(-0.000971707 -1.40439e-05 0)
(-0.000922129 -1.40215e-05 0)
(-0.000872678 -1.39708e-05 0)
(-0.000823455 -1.38916e-05 0)
(-0.000774559 -1.37834e-05 0)
(-0.000726093 -1.36458e-05 0)
(-0.000678159 -1.34784e-05 0)
(-0.000630862 -1.32807e-05 0)
(-0.000584307 -1.30525e-05 0)
(-0.000538601 -1.27933e-05 0)
(-0.000493851 -1.25028e-05 0)
(-0.000450163 -1.21808e-05 0)
(-0.000407647 -1.18273e-05 0)
(-0.00036641 -1.14423e-05 0)
(-0.00032656 -1.10258e-05 0)
(-0.000288203 -1.05777e-05 0)
(-0.000251446 -1.00982e-05 0)
(-0.000216393 -9.58733e-06 0)
(-0.00018315 -9.04539e-06 0)
(-0.000151817 -8.47266e-06 0)
(-0.000122494 -7.86966e-06 0)
(-9.52759e-05 -7.23724e-06 0)
(-7.02557e-05 -6.57648e-06 0)
(-4.75199e-05 -5.88872e-06 0)
(-2.71484e-05 -5.17569e-06 0)
(-9.21308e-06 -4.43951e-06 0)
(6.22378e-06 -3.68266e-06 0)
(1.9112e-05 -2.9083e-06 0)
(2.94167e-05 -2.12084e-06 0)
(3.71223e-05 -1.32631e-06 0)
(4.22376e-05 -5.32405e-07 0)
(4.4803e-05 2.50617e-07 0)
(4.49006e-05 1.00838e-06 0)
(4.26682e-05 1.72023e-06 0)
(3.8319e-05 2.35521e-06 0)
(3.21724e-05 2.86645e-06 0)
(2.46952e-05 3.18361e-06 0)
(1.65532e-05 3.20181e-06 0)
(8.69813e-06 2.7646e-06 0)
(2.60641e-06 1.68003e-06 0)
(1.11893e-07 1.13239e-07 0)
(1.72488e-06 -2.78954e-06 0)
(9.24318e-06 -9.35563e-06 0)
(2.29452e-05 -1.35453e-05 0)
(3.92331e-05 -1.48586e-05 0)
(5.51731e-05 -1.40306e-05 0)
(6.87222e-05 -1.16915e-05 0)
(7.83395e-05 -8.30991e-06 0)
(8.2871e-05 -4.21982e-06 0)
(8.15143e-05 3.4964e-07 0)
(7.36848e-05 5.22231e-06 0)
(5.90195e-05 1.02792e-05 0)
(3.7297e-05 1.54224e-05 0)
(8.3962e-06 2.05874e-05 0)
(-2.76945e-05 2.57111e-05 0)
(-7.09296e-05 3.07629e-05 0)
(-0.000121208 3.57065e-05 0)
(-0.000178374 4.05166e-05 0)
(-0.000242243 4.51717e-05 0)
(-0.000312603 4.96561e-05 0)
(-0.000389219 5.39598e-05 0)
(-0.000471834 5.8071e-05 0)
(-0.000560184 6.19831e-05 0)
(-0.000653986 6.56906e-05 0)
(-0.000752955 6.919e-05 0)
(-0.000856798 7.24786e-05 0)
(-0.000965217 7.55544e-05 0)
(-0.00107791 7.84181e-05 0)
(-0.00119458 8.10686e-05 0)
(-0.00131491 8.35057e-05 0)
(-0.00143861 8.573e-05 0)
(-0.00156537 8.77436e-05 0)
(-0.0016949 8.95505e-05 0)
(-0.0018269 9.11526e-05 0)
(-0.00196107 9.25512e-05 0)
(-0.00209712 9.3748e-05 0)
(-0.00223477 9.47485e-05 0)
(-0.00237374 9.5556e-05 0)
(-0.00251374 9.61728e-05 0)
(-0.00265449 9.66016e-05 0)
(-0.00279575 9.68462e-05 0)
(-0.00293722 9.69113e-05 0)
(-0.00307867 9.68014e-05 0)
(-0.00321983 9.65193e-05 0)
(-0.00336046 9.60685e-05 0)
(-0.00350032 9.54528e-05 0)
(-0.00363916 9.46767e-05 0)
(-0.00377675 9.37438e-05 0)
(-0.00391288 9.26585e-05 0)
(-0.00404732 9.14247e-05 0)
(-0.00417985 9.00464e-05 0)
(-0.00431027 8.85272e-05 0)
(-0.00443837 8.68714e-05 0)
(-0.00456396 8.50838e-05 0)
(-0.00468685 8.31685e-05 0)
(-0.00480685 8.11293e-05 0)
(-0.00492379 7.89702e-05 0)
(-0.00503749 7.6696e-05 0)
(-0.00514779 7.43109e-05 0)
(-0.00525452 7.18186e-05 0)
(-0.00535754 6.92232e-05 0)
(-0.0054567 6.65291e-05 0)
(-0.00555185 6.37409e-05 0)
(-0.00564286 6.08628e-05 0)
(-0.00572959 5.78988e-05 0)
(-0.00581194 5.48534e-05 0)
(-0.00588978 5.17308e-05 0)
(-0.005963 4.85353e-05 0)
(-0.0060315 4.52712e-05 0)
(-0.00609519 4.19429e-05 0)
(-0.00615396 3.85553e-05 0)
(-0.00620774 3.51125e-05 0)
(-0.00625645 3.16188e-05 0)
(-0.00630002 2.80786e-05 0)
(-0.00633838 2.44968e-05 0)
(-0.00637149 2.08783e-05 0)
(-0.00639928 1.72279e-05 0)
(-0.00642171 1.35499e-05 0)
(-0.00643875 9.84879e-06 0)
(-0.00645036 6.12937e-06 0)
(-0.00645653 2.39632e-06 0)
(-0.00645724 -1.3455e-06 0)
(-0.00645248 -5.09106e-06 0)
(-0.00644225 -8.8353e-06 0)
(-0.00642655 -1.25732e-05 0)
(-0.0064054 -1.62997e-05 0)
(-0.00637882 -2.00101e-05 0)
(-0.00634683 -2.36994e-05 0)
(-0.00630948 -2.73622e-05 0)
(-0.0062668 -3.0993e-05 0)
(-0.00621885 -3.45865e-05 0)
(-0.00616568 -3.81372e-05 0)
(-0.00610736 -4.16398e-05 0)
(-0.00604397 -4.50892e-05 0)
(-0.00597559 -4.84803e-05 0)
(-0.0059023 -5.1808e-05 0)
(-0.00582421 -5.50666e-05 0)
(-0.00574142 -5.82505e-05 0)
(-0.00565405 -6.13539e-05 0)
(-0.00556221 -6.43718e-05 0)
(-0.00546603 -6.72988e-05 0)
(-0.00536566 -7.01296e-05 0)
(-0.00526124 -7.2859e-05 0)
(-0.00515291 -7.54816e-05 0)
(-0.00504085 -7.79919e-05 0)
(-0.00492521 -8.03841e-05 0)
(-0.00480618 -8.2653e-05 0)
(-0.00468394 -8.47932e-05 0)
(-0.00455868 -8.67998e-05 0)
(-0.0044306 -8.86677e-05 0)
(-0.0042999 -9.03921e-05 0)
(-0.00416681 -9.19679e-05 0)
(-0.00403153 -9.33904e-05 0)
(-0.00389429 -9.46545e-05 0)
(-0.00375534 -9.57555e-05 0)
(-0.0036149 -9.66889e-05 0)
(-0.00347324 -9.74505e-05 0)
(-0.00333059 -9.8036e-05 0)
(-0.00318722 -9.84414e-05 0)
(-0.0030434 -9.86626e-05 0)
(-0.00289939 -9.86958e-05 0)
(-0.00275547 -9.85372e-05 0)
(-0.00261192 -9.81835e-05 0)
(-0.00246903 -9.76315e-05 0)
(-0.00232708 -9.68785e-05 0)
(-0.00218637 -9.59218e-05 0)
(-0.00204719 -9.47591e-05 0)
(-0.00190984 -9.33883e-05 0)
(-0.00177463 -9.18075e-05 0)
(-0.00164185 -9.0015e-05 0)
(-0.00151181 -8.80096e-05 0)
(-0.00138482 -8.57905e-05 0)
(-0.00126119 -8.33578e-05 0)
(-0.00114121 -8.07117e-05 0)
(-0.0010252 -7.78532e-05 0)
(-0.000913447 -7.47837e-05 0)
(-0.000806259 -7.15053e-05 0)
(-0.000703926 -6.80208e-05 0)
(-0.000606735 -6.43337e-05 0)
(-0.000514965 -6.04487e-05 0)
(-0.000428888 -5.63718e-05 0)
(-0.000348762 -5.21109e-05 0)
(-0.000274832 -4.76756e-05 0)
(-0.000207326 -4.3078e-05 0)
(-0.000146448 -3.83332e-05 0)
(-9.23794e-05 -3.34593e-05 0)
(-4.52674e-05 -2.84789e-05 0)
(-5.22145e-06 -2.34199e-05 0)
(2.76972e-05 -1.83171e-05 0)
(5.34866e-05 -1.32151e-05 0)
(7.22186e-05 -8.17101e-06 0)
(8.40579e-05 -3.25824e-06 0)
(8.9287e-05 1.42665e-06 0)
(8.83387e-05 5.75496e-06 0)
(8.18379e-05 9.55296e-06 0)
(7.06582e-05 1.25836e-05 0)
(5.59888e-05 1.45257e-05 0)
(3.93851e-05 1.49555e-05 0)
(2.28278e-05 1.33333e-05 0)
(9.0921e-06 9.10578e-06 0)
(1.67104e-06 2.60321e-06 0)
(2.70973e-06 -8.83232e-06 0)
(1.31004e-05 -2.29708e-05 0)
(3.06029e-05 -3.11574e-05 0)
(5.03008e-05 -3.3283e-05 0)
(6.85606e-05 -3.0539e-05 0)
(8.27643e-05 -2.41142e-05 0)
(9.08076e-05 -1.49888e-05 0)
(9.10667e-05 -3.90693e-06 0)
(8.22988e-05 8.5378e-06 0)
(6.36261e-05 2.19065e-05 0)
(3.4436e-05 3.58675e-05 0)
(-5.66769e-06 5.01509e-05 0)
(-5.69021e-05 6.45562e-05 0)
(-0.000119342 7.89304e-05 0)
(-0.000192946 9.31363e-05 0)
(-0.000277592 0.000107087 0)
(-0.000373075 0.000120699 0)
(-0.000479129 0.000133906 0)
(-0.000595441 0.00014666 0)
(-0.000721661 0.000158923 0)
(-0.000857407 0.000170661 0)
(-0.00100227 0.000181851 0)
(-0.00115582 0.000192473 0)
(-0.0013176 0.000202513 0)
(-0.00148718 0.00021196 0)
(-0.00166407 0.000220807 0)
(-0.0018478 0.00022905 0)
(-0.0020379 0.000236689 0)
(-0.00223389 0.000243721 0)
(-0.00243528 0.000250146 0)
(-0.0026416 0.000255971 0)
(-0.00285237 0.0002612 0)
(-0.00306711 0.000265838 0)
(-0.00328535 0.00026989 0)
(-0.00350663 0.000273365 0)
(-0.00373048 0.00027627 0)
(-0.00395646 0.000278614 0)
(-0.0041841 0.000280408 0)
(-0.00441297 0.000281659 0)
(-0.00464264 0.000282376 0)
(-0.00487267 0.000282571 0)
(-0.00510265 0.000282255 0)
(-0.00533217 0.000281438 0)
(-0.00556082 0.000280129 0)
(-0.00578822 0.000278342 0)
(-0.00601397 0.000276086 0)
(-0.0062377 0.000273374 0)
(-0.00645904 0.000270217 0)
(-0.00667764 0.000266625 0)
(-0.00689314 0.000262612 0)
(-0.00710521 0.000258188 0)
(-0.00731352 0.000253366 0)
(-0.00751775 0.000248159 0)
(-0.00771759 0.000242578 0)
(-0.00791274 0.000236633 0)
(-0.0081029 0.000230339 0)
(-0.0082878 0.000223708 0)
(-0.00846717 0.000216751 0)
(-0.00864074 0.000209482 0)
(-0.00880827 0.000201911 0)
(-0.00896951 0.000194051 0)
(-0.00912424 0.000185916 0)
(-0.00927223 0.000177517 0)
(-0.00941327 0.000168868 0)
(-0.00954717 0.00015998 0)
(-0.00967373 0.000150867 0)
(-0.00979278 0.000141541 0)
(-0.00990415 0.000132013 0)
(-0.0100077 0.000122299 0)
(-0.0101032 0.000112411 0)
(-0.0101906 0.000102362 0)
(-0.0102698 9.21651e-05 0)
(-0.0103406 8.18329e-05 0)
(-0.0104029 7.13795e-05 0)
(-0.0104567 6.08187e-05 0)
(-0.0105018 5.01642e-05 0)
(-0.0105382 3.94294e-05 0)
(-0.0105658 2.86279e-05 0)
(-0.0105846 1.77737e-05 0)
(-0.0105946 6.88091e-06 0)
(-0.0105957 -4.03634e-06 0)
(-0.0105878 -1.49636e-05 0)
(-0.0105711 -2.58864e-05 0)
(-0.0105455 -3.67902e-05 0)
(-0.010511 -4.76603e-05 0)
(-0.0104677 -5.8482e-05 0)
(-0.0104156 -6.92401e-05 0)
(-0.0103547 -7.99195e-05 0)
(-0.0102852 -9.05048e-05 0)
(-0.0102072 -0.000100981 0)
(-0.0101206 -0.000111331 0)
(-0.0100257 -0.000121541 0)
(-0.00992259 -0.000131595 0)
(-0.00981133 -0.000141477 0)
(-0.0096921 -0.000151172 0)
(-0.00956508 -0.000160665 0)
(-0.00943042 -0.000169939 0)
(-0.00928831 -0.000178978 0)
(-0.00913895 -0.000187767 0)
(-0.00898256 -0.00019629 0)
(-0.00881935 -0.000204531 0)
(-0.00864956 -0.000212475 0)
(-0.00847345 -0.000220106 0)
(-0.00829126 -0.00022741 0)
(-0.00810329 -0.000234369 0)
(-0.00790981 -0.000240968 0)
(-0.00771112 -0.000247192 0)
(-0.00750753 -0.000253027 0)
(-0.00729937 -0.000258457 0)
(-0.00708696 -0.000263469 0)
(-0.00687067 -0.000268049 0)
(-0.00665084 -0.000272181 0)
(-0.00642784 -0.000275852 0)
(-0.00620205 -0.00027905 0)
(-0.00597386 -0.00028176 0)
(-0.00574368 -0.000283971 0)
(-0.00551191 -0.00028567 0)
(-0.00527896 -0.000286846 0)
(-0.00504528 -0.000287487 0)
(-0.00481129 -0.000287583 0)
(-0.00457744 -0.000287124 0)
(-0.00434418 -0.000286101 0)
(-0.00411198 -0.000284503 0)
(-0.00388129 -0.000282325 0)
(-0.00365259 -0.000279558 0)
(-0.00342635 -0.000276196 0)
(-0.00320306 -0.000272234 0)
(-0.00298319 -0.000267667 0)
(-0.00276724 -0.000262492 0)
(-0.00255569 -0.000256706 0)
(-0.00234903 -0.000250308 0)
(-0.00214775 -0.000243299 0)
(-0.00195234 -0.00023568 0)
(-0.00176326 -0.000227456 0)
(-0.00158101 -0.000218632 0)
(-0.00140606 -0.000209217 0)
(-0.00123885 -0.00019922 0)
(-0.00107985 -0.000188655 0)
(-0.000929493 -0.000177539 0)
(-0.000788189 -0.00016589 0)
(-0.000656339 -0.000153737 0)
(-0.000534316 -0.000141109 0)
(-0.00042246 -0.000128045 0)
(-0.000321075 -0.000114592 0)
(-0.000230422 -0.000100808 0)
(-0.000150705 -8.67626e-05 0)
(-8.20649e-05 -7.25416e-05 0)
(-2.45637e-05 -5.82511e-05 0)
(2.18338e-05 -4.4023e-05 0)
(5.72798e-05 -3.00232e-05 0)
(8.20711e-05 -1.64609e-05 0)
(9.66817e-05 -3.60289e-06 0)
(0.000101804 8.20901e-06 0)
(9.83967e-05 1.85343e-05 0)
(8.77489e-05 2.6806e-05 0)
(7.1541e-05 3.23046e-05 0)
(5.18718e-05 3.41465e-05 0)
(3.12823e-05 3.1311e-05 0)
(1.3302e-05 2.28318e-05 0)
(2.74783e-06 8.67692e-06 0)
(3.10948e-06 -1.65123e-05 0)
(1.44507e-05 -3.89935e-05 0)
(3.26718e-05 -5.07836e-05 0)
(5.20133e-05 -5.26677e-05 0)
(6.83617e-05 -4.64501e-05 0)
(7.87645e-05 -3.39206e-05 0)
(8.08026e-05 -1.65733e-05 0)
(7.25124e-05 4.33513e-06 0)
(5.23931e-05 2.78247e-05 0)
(1.93229e-05 5.31193e-05 0)
(-2.7503e-05 7.95925e-05 0)
(-8.86245e-05 0.00010677 0)
(-0.000164355 0.000134256 0)
(-0.000254834 0.000161748 0)
(-0.000360048 0.000188997 0)
(-0.000479859 0.000215803 0)
(-0.000614035 0.00024201 0)
(-0.000762254 0.000267487 0)
(-0.000924127 0.000292131 0)
(-0.00109921 0.000315856 0)
(-0.00128702 0.000338598 0)
(-0.00148702 0.000360304 0)
(-0.00169866 0.000380933 0)
(-0.00192135 0.000400452 0)
(-0.00215449 0.000418835 0)
(-0.00239748 0.000436066 0)
(-0.00264967 0.000452134 0)
(-0.00291044 0.000467032 0)
(-0.00317914 0.000480757 0)
(-0.00345514 0.000493311 0)
(-0.0037378 0.000504697 0)
(-0.00402646 0.000514923 0)
(-0.00432049 0.000523997 0)
(-0.00461926 0.00053193 0)
(-0.00492214 0.000538736 0)
(-0.00522849 0.000544429 0)
(-0.00553772 0.000549024 0)
(-0.0058492 0.000552537 0)
(-0.00616235 0.000554988 0)
(-0.00647656 0.000556394 0)
(-0.00679126 0.000556775 0)
(-0.00710588 0.000556151 0)
(-0.00741986 0.00055454 0)
(-0.00773265 0.000551965 0)
(-0.00804371 0.000548447 0)
(-0.00835252 0.000544008 0)
(-0.00865857 0.00053867 0)
(-0.00896135 0.000532454 0)
(-0.00926037 0.000525383 0)
(-0.00955517 0.000517481 0)
(-0.00984527 0.00050877 0)
(-0.0101302 0.000499274 0)
(-0.0104096 0.000489017 0)
(-0.010683 0.000478022 0)
(-0.0109499 0.000466311 0)
(-0.01121 0.000453911 0)
(-0.011463 0.000440844 0)
(-0.0117083 0.000427134 0)
(-0.0119458 0.000412807 0)
(-0.0121749 0.000397885 0)
(-0.0123955 0.000382394 0)
(-0.0126071 0.000366358 0)
(-0.0128096 0.000349802 0)
(-0.0130025 0.000332751 0)
(-0.0131856 0.00031523 0)
(-0.0133587 0.000297263 0)
(-0.0135215 0.000278876 0)
(-0.0136738 0.000260094 0)
(-0.0138154 0.000240942 0)
(-0.013946 0.000221447 0)
(-0.0140656 0.000201635 0)
(-0.0141738 0.00018153 0)
(-0.0142705 0.000161161 0)
(-0.0143557 0.000140552 0)
(-0.0144292 0.000119733 0)
(-0.0144908 9.87279e-05 0)
(-0.0145405 7.75656e-05 0)
(-0.0145782 5.62728e-05 0)
(-0.0146039 3.48769e-05 0)
(-0.0146174 1.34057e-05 0)
(-0.0146187 -8.11228e-06 0)
(-0.0146079 -2.96488e-05 0)
(-0.0145849 -5.11754e-05 0)
(-0.0145497 -7.26632e-05 0)
(-0.0145024 -9.40833e-05 0)
(-0.0144431 -0.000115406 0)
(-0.0143717 -0.000136603 0)
(-0.0142884 -0.000157642 0)
(-0.0141932 -0.000178495 0)
(-0.0140863 -0.00019913 0)
(-0.0139679 -0.000219518 0)
(-0.013838 -0.000239627 0)
(-0.0136968 -0.000259427 0)
(-0.0135446 -0.000278888 0)
(-0.0133814 -0.000297979 0)
(-0.0132076 -0.000316669 0)
(-0.0130234 -0.000334927 0)
(-0.012829 -0.000352721 0)
(-0.0126247 -0.00037002 0)
(-0.0124107 -0.000386795 0)
(-0.0121875 -0.000403014 0)
(-0.0119553 -0.000418646 0)
(-0.0117144 -0.000433661 0)
(-0.0114653 -0.000448028 0)
(-0.0112082 -0.000461717 0)
(-0.0109437 -0.000474697 0)
(-0.010672 -0.000486939 0)
(-0.0103936 -0.000498413 0)
(-0.010109 -0.000509092 0)
(-0.00981862 -0.000518948 0)
(-0.0095229 -0.000527951 0)
(-0.00922237 -0.000536075 0)
(-0.0089175 -0.000543293 0)
(-0.00860883 -0.000549578 0)
(-0.00829689 -0.000554907 0)
(-0.00798221 -0.000559255 0)
(-0.00766535 -0.000562597 0)
(-0.0073469 -0.000564913 0)
(-0.00702742 -0.00056618 0)
(-0.00670751 -0.000566379 0)
(-0.00638778 -0.000565489 0)
(-0.00606884 -0.000563493 0)
(-0.0057513 -0.000560374 0)
(-0.00543581 -0.000556118 0)
(-0.005123 -0.000550711 0)
(-0.00481351 -0.000544143 0)
(-0.004508 -0.000536402 0)
(-0.00420711 -0.000527482 0)
(-0.0039115 -0.000517376 0)
(-0.00362183 -0.000506082 0)
(-0.00333875 -0.0004936 0)
(-0.00306292 -0.00047993 0)
(-0.00279498 -0.00046508 0)
(-0.00253559 -0.000449059 0)
(-0.00228537 -0.000431881 0)
(-0.00204495 -0.000413562 0)
(-0.00181495 -0.000394128 0)
(-0.00159595 -0.000373606 0)
(-0.00138853 -0.000352032 0)
(-0.00119324 -0.000329451 0)
(-0.00101058 -0.000305918 0)
(-0.000841037 -0.000281498 0)
(-0.000685048 -0.000256271 0)
(-0.000542991 -0.000230334 0)
(-0.000415186 -0.000203802 0)
(-0.000301877 -0.000176818 0)
(-0.000203219 -0.000149554 0)
(-0.00011926 -0.00012222 0)
(-4.99218e-05 -9.50735e-05 0)
(5.02757e-06 -6.84327e-05 0)
(4.60031e-05 -4.26921e-05 0)
(7.36394e-05 -1.83435e-05 0)
(8.88326e-05 3.99922e-06 0)
(9.27888e-05 2.35695e-05 0)
(8.70814e-05 3.94151e-05 0)
(7.37082e-05 5.03711e-05 0)
(5.51027e-05 5.50537e-05 0)
(3.41608e-05 5.19058e-05 0)
(1.49354e-05 3.9382e-05 0)
(3.18432e-06 1.65078e-05 0)
(3.06519e-06 -2.43215e-05 0)
(1.37855e-05 -5.46813e-05 0)
(3.0155e-05 -6.89062e-05 0)
(4.60288e-05 -6.89796e-05 0)
(5.70419e-05 -5.7452e-05 0)
(6.00652e-05 -3.67147e-05 0)
(5.24624e-05 -8.84606e-06 0)
(3.2097e-05 2.44362e-05 0)
(-2.70509e-06 6.17194e-05 0)
(-5.32362e-05 0.000101855 0)
(-0.000120429 0.000143918 0)
(-0.000204932 0.00018716 0)
(-0.000307151 0.000230984 0)
(-0.000427268 0.000274888 0)
(-0.0005653 0.000318488 0)
(-0.000721112 0.000361452 0)
(-0.000894447 0.000403519 0)
(-0.00108494 0.000444475 0)
(-0.00129216 0.000484145 0)
(-0.00151556 0.000522385 0)
(-0.00175459 0.000559082 0)
(-0.0020086 0.000594141 0)
(-0.00227694 0.000627492 0)
(-0.0025589 0.000659076 0)
(-0.00285375 0.000688849 0)
(-0.00316075 0.000716776 0)
(-0.00347913 0.000742838 0)
(-0.00380812 0.000767016 0)
(-0.00414693 0.000789302 0)
(-0.00449478 0.000809698 0)
(-0.00485086 0.000828207 0)
(-0.0052144 0.000844835 0)
(-0.0055846 0.000859595 0)
(-0.00596067 0.000872505 0)
(-0.00634184 0.000883582 0)
(-0.00672732 0.000892848 0)
(-0.00711636 0.000900327 0)
(-0.00750819 0.000906043 0)
(-0.00790207 0.000910025 0)
(-0.00829726 0.000912303 0)
(-0.00869305 0.000912907 0)
(-0.0090887 0.000911867 0)
(-0.00948354 0.000909216 0)
(-0.00987686 0.000904987 0)
(-0.010268 0.000899215 0)
(-0.0106563 0.000891935 0)
(-0.0110411 0.000883183 0)
(-0.0114218 0.000872993 0)
(-0.0117978 0.000861403 0)
(-0.0121684 0.00084845 0)
(-0.0125332 0.000834171 0)
(-0.0128915 0.000818605 0)
(-0.0132427 0.000801789 0)
(-0.0135864 0.000783762 0)
(-0.013922 0.000764562 0)
(-0.0142491 0.00074423 0)
(-0.0145671 0.000722804 0)
(-0.0148755 0.000700323 0)
(-0.0151741 0.000676828 0)
(-0.0154622 0.000652357 0)
(-0.0157394 0.000626952 0)
(-0.0160055 0.000600652 0)
(-0.01626 0.000573499 0)
(-0.0165025 0.000545532 0)
(-0.0167327 0.000516794 0)
(-0.0169503 0.000487324 0)
(-0.0171549 0.000457164 0)
(-0.0173463 0.000426357 0)
(-0.0175243 0.000394944 0)
(-0.0176884 0.000362968 0)
(-0.0178386 0.00033047 0)
(-0.0179746 0.000297494 0)
(-0.0180962 0.000264084 0)
(-0.0182032 0.000230283 0)
(-0.0182954 0.000196136 0)
(-0.0183728 0.000161686 0)
(-0.0184352 0.000126978 0)
(-0.0184825 9.20576e-05 0)
(-0.0185146 5.69694e-05 0)
(-0.0185314 2.17593e-05 0)
(-0.018533 -1.35263e-05 0)
(-0.0185193 -4.88408e-05 0)
(-0.0184902 -8.41371e-05 0)
(-0.0184459 -0.000119368 0)
(-0.0183863 -0.000154486 0)
(-0.0183116 -0.000189442 0)
(-0.0182217 -0.000224189 0)
(-0.0181168 -0.000258677 0)
(-0.0179971 -0.000292856 0)
(-0.0178626 -0.000326677 0)
(-0.0177136 -0.00036009 0)
(-0.0175502 -0.000393045 0)
(-0.0173727 -0.000425492 0)
(-0.0171812 -0.00045738 0)
(-0.016976 -0.00048866 0)
(-0.0167575 -0.00051928 0)
(-0.0165258 -0.00054919 0)
(-0.0162814 -0.000578339 0)
(-0.0160246 -0.000606676 0)
(-0.0157556 -0.00063415 0)
(-0.015475 -0.000660712 0)
(-0.0151831 -0.000686312 0)
(-0.0148804 -0.000710898 0)
(-0.0145672 -0.000734422 0)
(-0.0142442 -0.000756834 0)
(-0.0139116 -0.000778085 0)
(-0.0135702 -0.000798126 0)
(-0.0132204 -0.000816911 0)
(-0.0128627 -0.000834392 0)
(-0.0124978 -0.000850524 0)
(-0.0121262 -0.000865262 0)
(-0.0117485 -0.000878561 0)
(-0.0113654 -0.000890378 0)
(-0.0109775 -0.000900671 0)
(-0.0105855 -0.000909399 0)
(-0.0101901 -0.000916523 0)
(-0.00979187 -0.000922007 0)
(-0.00939165 -0.000925813 0)
(-0.00899013 -0.000927907 0)
(-0.00858805 -0.000928258 0)
(-0.00818616 -0.000926833 0)
(-0.00778522 -0.000923606 0)
(-0.00738602 -0.00091855 0)
(-0.00698933 -0.000911643 0)
(-0.00659596 -0.000902863 0)
(-0.00620669 -0.000892193 0)
(-0.00582234 -0.000879619 0)
(-0.00544371 -0.00086513 0)
(-0.00507162 -0.000848718 0)
(-0.00470688 -0.000830381 0)
(-0.0043503 -0.000810119 0)
(-0.00400268 -0.00078794 0)
(-0.00366483 -0.000763856 0)
(-0.00333754 -0.000737884 0)
(-0.00302158 -0.00071005 0)
(-0.00271773 -0.000680387 0)
(-0.00242671 -0.000648936 0)
(-0.00214926 -0.00061575 0)
(-0.00188607 -0.000580891 0)
(-0.00163779 -0.000544438 0)
(-0.00140503 -0.000506483 0)
(-0.00118838 -0.00046714 0)
(-0.000988332 -0.000426544 0)
(-0.000805337 -0.000384857 0)
(-0.00063976 -0.000342274 0)
(-0.000491871 -0.000299029 0)
(-0.000361832 -0.000255403 0)
(-0.000249674 -0.000211738 0)
(-0.000155277 -0.000168446 0)
(-7.8341e-05 -0.000126029 0)
(-1.83561e-05 -8.50995e-05 0)
(2.5435e-05 -4.6406e-05 0)
(5.4076e-05 -1.08648e-05 0)
(6.8942e-05 2.04064e-05 0)
(7.17916e-05 4.60521e-05 0)
(6.48181e-05 6.44492e-05 0)
(5.0662e-05 7.36961e-05 0)
(3.24528e-05 7.16451e-05 0)
(1.45547e-05 5.60222e-05 0)
(3.17371e-06 2.4639e-05 0)
(2.71789e-06 -3.13664e-05 0)
(1.16436e-05 -6.81177e-05 0)
(2.40718e-05 -8.30627e-05 0)
(3.39382e-05 -7.94111e-05 0)
(3.68448e-05 -6.04883e-05 0)
(2.95394e-05 -2.93525e-05 0)
(9.31749e-06 1.13748e-05 0)
(-2.60517e-05 5.9493e-05 0)
(-7.83505e-05 0.000113155 0)
(-0.000148955 0.000170838 0)
(-0.00023889 0.000231298 0)
(-0.000348874 0.000293496 0)
(-0.00047937 0.000356598 0)
(-0.000630605 0.000419907 0)
(-0.000802607 0.00048285 0)
(-0.00099525 0.000544961 0)
(-0.00120826 0.000605853 0)
(-0.00144123 0.000665207 0)
(-0.00169368 0.000722762 0)
(-0.00196503 0.000778302 0)
(-0.00225461 0.000831653 0)
(-0.00256172 0.000882672 0)
(-0.00288559 0.000931243 0)
(-0.00322542 0.000977275 0)
(-0.00358037 0.0010207 0)
(-0.00394958 0.00106146 0)
(-0.00433215 0.00109952 0)
(-0.00472719 0.00113485 0)
(-0.00513378 0.00116743 0)
(-0.005551 0.00119726 0)
(-0.00597792 0.00122434 0)
(-0.00641361 0.00124867 0)
(-0.00685715 0.00127028 0)
(-0.0073076 0.00128918 0)
(-0.00776404 0.0013054 0)
(-0.00822557 0.00131896 0)
(-0.00869128 0.00132991 0)
(-0.00916026 0.00133827 0)
(-0.00963164 0.00134408 0)
(-0.0101045 0.00134738 0)
(-0.0105781 0.00134823 0)
(-0.0110515 0.00134665 0)
(-0.0115238 0.00134271 0)
(-0.0119943 0.00133644 0)
(-0.0124622 0.0013279 0)
(-0.0129267 0.00131713 0)
(-0.013387 0.0013042 0)
(-0.0138424 0.00128914 0)
(-0.014292 0.00127202 0)
(-0.0147354 0.00125289 0)
(-0.0151716 0.0012318 0)
(-0.0156001 0.00120881 0)
(-0.0160202 0.00118398 0)
(-0.0164312 0.00115735 0)
(-0.0168326 0.001129 0)
(-0.0172237 0.00109897 0)
(-0.017604 0.00106732 0)
(-0.0179729 0.00103412 0)
(-0.0183298 0.000999417 0)
(-0.0186744 0.000963273 0)
(-0.0190059 0.000925748 0)
(-0.0193241 0.000886901 0)
(-0.0196284 0.000846792 0)
(-0.0199183 0.000805482 0)
(-0.0201936 0.00076303 0)
(-0.0204537 0.000719498 0)
(-0.0206984 0.000674948 0)
(-0.0209272 0.00062944 0)
(-0.0211399 0.000583037 0)
(-0.0213361 0.000535803 0)
(-0.0215156 0.000487799 0)
(-0.0216782 0.00043909 0)
(-0.0218234 0.00038974 0)
(-0.0219513 0.000339814 0)
(-0.0220615 0.000289376 0)
(-0.0221539 0.000238493 0)
(-0.0222284 0.00018723 0)
(-0.0222848 0.000135654 0)
(-0.022323 8.3833e-05 0)
(-0.0223431 3.18338e-05 0)
(-0.0223448 -2.0275e-05 0)
(-0.0223282 -7.24244e-05 0)
(-0.0222934 -0.000124545 0)
(-0.0222402 -0.000176566 0)
(-0.0221689 -0.000228417 0)
(-0.0220793 -0.000280028 0)
(-0.0219718 -0.000331326 0)
(-0.0218462 -0.000382239 0)
(-0.021703 -0.000432694 0)
(-0.0215421 -0.000482618 0)
(-0.0213638 -0.000531937 0)
(-0.0211683 -0.000580577 0)
(-0.0209559 -0.000628465 0)
(-0.0207269 -0.000675526 0)
(-0.0204815 -0.000721686 0)
(-0.0202201 -0.00076687 0)
(-0.0199431 -0.000811003 0)
(-0.0196508 -0.00085401 0)
(-0.0193436 -0.000895817 0)
(-0.0190221 -0.00093635 0)
(-0.0186865 -0.000975535 0)
(-0.0183375 -0.0010133 0)
(-0.0179756 -0.00104956 0)
(-0.0176012 -0.00108426 0)
(-0.0172149 -0.00111732 0)
(-0.0168174 -0.00114866 0)
(-0.0164093 -0.00117822 0)
(-0.015991 -0.00120592 0)
(-0.0155635 -0.0012317 0)
(-0.0151272 -0.0012555 0)
(-0.014683 -0.00127724 0)
(-0.0142315 -0.00129686 0)
(-0.0137735 -0.00131429 0)
(-0.0133098 -0.00132948 0)
(-0.0128412 -0.00134237 0)
(-0.0123684 -0.0013529 0)
(-0.0118924 -0.00136102 0)
(-0.0114139 -0.00136667 0)
(-0.0109337 -0.0013698 0)
(-0.0104529 -0.00137037 0)
(-0.00997231 -0.00136833 0)
(-0.00949277 -0.00136365 0)
(-0.00901524 -0.00135628 0)
(-0.00854065 -0.0013462 0)
(-0.00806994 -0.00133337 0)
(-0.00760405 -0.00131778 0)
(-0.00714393 -0.00129939 0)
(-0.00669054 -0.00127821 0)
(-0.00624484 -0.00125422 0)
(-0.00580778 -0.00122742 0)
(-0.00538031 -0.00119781 0)
(-0.00496338 -0.00116541 0)
(-0.00455793 -0.00113024 0)
(-0.00416488 -0.00109232 0)
(-0.00378514 -0.00105171 0)
(-0.00341959 -0.00100845 0)
(-0.00306911 -0.000962604 0)
(-0.00273453 -0.000914262 0)
(-0.00241663 -0.00086352 0)
(-0.00211618 -0.000810497 0)
(-0.00183389 -0.000755337 0)
(-0.00157039 -0.00069821 0)
(-0.00132626 -0.000639322 0)
(-0.001102 -0.000578914 0)
(-0.000898012 -0.000517277 0)
(-0.000714587 -0.000454754 0)
(-0.000551892 -0.000391758 0)
(-0.000409944 -0.00032878 0)
(-0.00028859 -0.000266409 0)
(-0.00018748 -0.000205354 0)
(-0.000106035 -0.000146466 0)
(-4.34125e-05 -9.07699e-05 0)
(1.52731e-06 -3.95e-05 0)
(3.02648e-05 5.86495e-06 0)
(4.46661e-05 4.35608e-05 0)
(4.70328e-05 7.15019e-05 0)
(4.01184e-05 8.72567e-05 0)
(2.71859e-05 8.8052e-05 0)
(1.27025e-05 7.0819e-05 0)
(2.8724e-06 3.2141e-05 0)
(2.18836e-06 -3.69896e-05 0)
(8.45228e-06 -7.77989e-05 0)
(1.53259e-05 -9.1237e-05 0)
(1.71718e-05 -8.16075e-05 0)
(9.70377e-06 -5.30331e-05 0)
(-1.03198e-05 -9.19298e-06 0)
(-4.56128e-05 4.67506e-05 0)
(-9.84296e-05 0.000112108 0)
(-0.000170583 0.000184617 0)
(-0.000263486 0.000262388 0)
(-0.00037821 0.000343831 0)
(-0.000515512 0.000427637 0)
(-0.000675879 0.000512697 0)
(-0.000859568 0.000598113 0)
(-0.00106662 0.000683116 0)
(-0.00129688 0.00076708 0)
(-0.00155009 0.000849479 0)
(-0.0018258 0.000929874 0)
(-0.00212347 0.00100791 0)
(-0.00244249 0.00108328 0)
(-0.00278211 0.00115574 0)
(-0.00314156 0.00122508 0)
(-0.00352 0.00129115 0)
(-0.00391651 0.00135381 0)
(-0.00433017 0.00141296 0)
(-0.00476001 0.00146851 0)
(-0.00520502 0.0015204 0)
(-0.0056642 0.00156859 0)
(-0.0061365 0.00161306 0)
(-0.00662089 0.00165378 0)
(-0.00711632 0.00169076 0)
(-0.00762171 0.001724 0)
(-0.00813603 0.00175352 0)
(-0.00865821 0.00177934 0)
(-0.00918721 0.00180149 0)
(-0.00972198 0.00182001 0)
(-0.0102615 0.00183494 0)
(-0.0108047 0.00184633 0)
(-0.0113506 0.00185423 0)
(-0.0118982 0.00185869 0)
(-0.0124465 0.00185977 0)
(-0.0129945 0.00185753 0)
(-0.0135413 0.00185202 0)
(-0.014086 0.00184333 0)
(-0.0146275 0.00183151 0)
(-0.0151651 0.00181663 0)
(-0.0156978 0.00179876 0)
(-0.0162248 0.00177797 0)
(-0.0167452 0.00175434 0)
(-0.0172582 0.00172793 0)
(-0.017763 0.00169883 0)
(-0.0182588 0.00166711 0)
(-0.0187449 0.00163285 0)
(-0.0192205 0.00159612 0)
(-0.0196849 0.00155701 0)
(-0.0201375 0.00151558 0)
(-0.0205774 0.00147193 0)
(-0.0210042 0.00142612 0)
(-0.0214172 0.00137825 0)
(-0.0218158 0.00132839 0)
(-0.0221994 0.00127662 0)
(-0.0225674 0.00122303 0)
(-0.0229194 0.0011677 0)
(-0.0232548 0.00111071 0)
(-0.0235732 0.00105214 0)
(-0.0238741 0.00099209 0)
(-0.0241571 0.00093063 0)
(-0.0244218 0.000867851 0)
(-0.0246677 0.000803837 0)
(-0.0248947 0.000738677 0)
(-0.0251022 0.000672456 0)
(-0.0252901 0.000605264 0)
(-0.0254581 0.000537188 0)
(-0.0256059 0.000468319 0)
(-0.0257333 0.000398745 0)
(-0.02584 0.000328559 0)
(-0.0259261 0.000257851 0)
(-0.0259912 0.000186714 0)
(-0.0260353 0.00011524 0)
(-0.0260583 4.35229e-05 0)
(-0.0260602 -2.83424e-05 0)
(-0.0260409 -0.000100261 0)
(-0.0260004 -0.000172136 0)
(-0.0259388 -0.000243872 0)
(-0.0258561 -0.000315371 0)
(-0.0257524 -0.000386534 0)
(-0.0256278 -0.000457263 0)