/*--------------------------------*- C++ -*----------------------------------*\
  =========                 |
  \\      /  F ield         | OpenFOAM: The Open Source CFD Toolbox
   \\    /   O peration     | Website:  https://openfoam.org
    \\  /    A nd           | Version:  7
     \\/     M anipulation  |
\*---------------------------------------------------------------------------*/
FoamFile
{
    version     2.0;
    format      ascii;
    class       surfaceScalarField;
    location    "0.0625";
    object      phi;
}
// * * * * * * * * * * * * * * * * * * * * * * * * * * * * * * * * * * * * * //

dimensions      [0 3 -1 0 0 0 0];

internalField   nonuniform List<scalar> 
50880
(
4.15938e-12
-4.11219e-12
3.0207e-11
-2.60465e-11
7.51436e-11
-4.49392e-11
1.28402e-10
-5.32552e-11
1.81992e-10
-5.35906e-11
2.30142e-10
-4.81432e-11
2.68736e-10
-3.86008e-11
2.9505e-10
-2.63171e-11
3.06984e-10
-1.19342e-11
3.03135e-10
3.84936e-12
2.82513e-10
2.06212e-11
2.4469e-10
3.7822e-11
1.89198e-10
5.54944e-11
1.16041e-10
7.31618e-11
2.54283e-11
9.06072e-11
-8.20959e-11
1.07526e-10
-2.06045e-10
1.23946e-10
-3.45668e-10
1.39626e-10
-5.00209e-10
1.5454e-10
-6.6876e-10
1.68552e-10
-8.50367e-10
1.81609e-10
-1.04416e-09
1.93791e-10
-1.24904e-09
2.04887e-10
-1.46416e-09
2.1511e-10
-1.68846e-09
2.24294e-10
-1.9212e-09
2.32746e-10
-2.16145e-09
2.40244e-10
-2.40854e-09
2.47094e-10
-2.66165e-09
2.53117e-10
-2.92026e-09
2.58609e-10
-3.18373e-09
2.63467e-10
-3.45148e-09
2.6774e-10
-3.72299e-09
2.71517e-10
-3.9978e-09
2.74806e-10
-4.27539e-09
2.7759e-10
-4.55536e-09
2.79975e-10
-4.83733e-09
2.81972e-10
-5.12083e-09
2.83501e-10
-5.40544e-09
2.84621e-10
-5.69076e-09
2.85321e-10
-5.97626e-09
2.85507e-10
-6.26144e-09
2.8518e-10
-6.54579e-09
2.84341e-10
-6.82871e-09
2.82919e-10
-7.10957e-09
2.8086e-10
-7.38779e-09
2.78218e-10
-7.66279e-09
2.74996e-10
-7.93399e-09
2.71196e-10
-8.20087e-09
2.6688e-10
-8.46298e-09
2.62104e-10
-8.71989e-09
2.56921e-10
-8.9712e-09
2.51312e-10
-9.21654e-09
2.45333e-10
-9.45561e-09
2.39077e-10
-9.68817e-09
2.32564e-10
-9.914e-09
2.25826e-10
-1.01329e-08
2.18904e-10
-1.03448e-08
2.11847e-10
-1.05494e-08
2.0464e-10
-1.07466e-08
1.97233e-10
-1.09363e-08
1.89632e-10
-1.11181e-08
1.8183e-10
-1.12919e-08
1.73821e-10
-1.14575e-08
1.65605e-10
-1.16147e-08
1.57167e-10
-1.17632e-08
1.48519e-10
-1.19029e-08
1.39672e-10
-1.20335e-08
1.30641e-10
-1.2155e-08
1.2144e-10
-1.2267e-08
1.12071e-10
-1.23696e-08
1.02553e-10
-1.24625e-08
9.28778e-11
-1.25455e-08
8.30256e-11
-1.26185e-08
7.30392e-11
-1.26815e-08
6.29473e-11
-1.27342e-08
5.2749e-11
-1.27767e-08
4.24711e-11
-1.28088e-08
3.20975e-11
-1.28304e-08
2.15833e-11
-1.28413e-08
1.09644e-11
-1.28416e-08
2.69143e-13
-1.2831e-08
-1.05542e-11
-1.28095e-08
-2.15074e-11
-1.2777e-08
-3.2529e-11
-1.27334e-08
-4.36223e-11
-1.26786e-08
-5.47988e-11
-1.26126e-08
-6.59976e-11
-1.25354e-08
-7.71968e-11
-1.2447e-08
-8.84327e-11
-1.23473e-08
-9.96649e-11
-1.22365e-08
-1.10814e-10
-1.21146e-08
-1.21881e-10
-1.19817e-08
-1.32859e-10
-1.18381e-08
-1.43641e-10
-1.1684e-08
-1.54138e-10
-1.15196e-08
-1.6436e-10
-1.13453e-08
-1.74293e-10
-1.11615e-08
-1.83848e-10
-1.09685e-08
-1.92983e-10
-1.07667e-08
-2.01729e-10
-1.05567e-08
-2.10074e-10
-1.03387e-08
-2.17962e-10
-1.01133e-08
-2.25402e-10
-9.88085e-09
-2.32459e-10
-9.64171e-09
-2.39139e-10
-9.39632e-09
-2.45394e-10
-9.14507e-09
-2.51244e-10
-8.88831e-09
-2.56759e-10
-8.62637e-09
-2.61945e-10
-8.35963e-09
-2.66745e-10
-8.08849e-09
-2.71135e-10
-7.81336e-09
-2.75134e-10
-7.53464e-09
-2.78723e-10
-7.2528e-09
-2.81835e-10
-6.96837e-09
-2.8443e-10
-6.68186e-09
-2.8651e-10
-6.3938e-09
-2.88059e-10
-6.10478e-09
-2.89027e-10
-5.81538e-09
-2.89397e-10
-5.52616e-09
-2.89216e-10
-5.23764e-09
-2.88523e-10
-4.95034e-09
-2.873e-10
-4.66482e-09
-2.85515e-10
-4.38165e-09
-2.83175e-10
-4.10135e-09
-2.80302e-10
-3.82446e-09
-2.76885e-10
-3.55157e-09
-2.72889e-10
-3.28326e-09
-2.68307e-10
-3.0201e-09
-2.63163e-10
-2.76264e-09
-2.57464e-10
-2.51145e-09
-2.51184e-10
-2.26716e-09
-2.44298e-10
-2.03034e-09
-2.36812e-10
-1.8016e-09
-2.28743e-10
-1.58152e-09
-2.20078e-10
-1.37073e-09
-2.10792e-10
-1.16987e-09
-2.00866e-10
-9.79554e-10
-1.90313e-10
-8.004e-10
-1.79153e-10
-6.3303e-10
-1.67371e-10
-4.78094e-10
-1.54937e-10
-3.36224e-10
-1.41871e-10
-2.08005e-10
-1.2822e-10
-9.39631e-11
-1.14043e-10
5.45644e-12
-9.94214e-11
8.98533e-11
-8.43983e-11
1.58889e-10
-6.90371e-11
2.12354e-10
-5.34649e-11
2.50156e-10
-3.78036e-11
2.72405e-10
-2.22503e-11
2.79481e-10
-7.0768e-12
2.72034e-10
7.44592e-12
2.5112e-10
2.09139e-11
2.18331e-10
3.27884e-11
1.76002e-10
4.23286e-11
1.27591e-10
4.84105e-11
7.80386e-11
4.95515e-11
3.42708e-11
4.37663e-11
5.66948e-12
2.85995e-11
5.66797e-12
2.28601e-11
-2.69706e-11
8.26091e-11
-8.57979e-11
1.70082e-10
-1.32414e-10
2.6894e-10
-1.52112e-10
3.63843e-10
-1.48502e-10
4.42788e-10
-1.27089e-10
4.96704e-10
-9.25063e-11
5.18706e-10
-4.83214e-11
5.03971e-10
2.8103e-12
4.4891e-10
5.8907e-11
3.5128e-10
1.18253e-10
2.09506e-10
1.79592e-10
2.30678e-11
2.4193e-10
-2.08242e-10
3.04475e-10
-4.83964e-10
3.66334e-10
-8.03379e-10
4.26941e-10
-1.16518e-09
4.85746e-10
-1.568e-09
5.4245e-10
-2.01012e-09
5.96655e-10
-2.48972e-09
6.48151e-10
-3.00488e-09
6.96769e-10
-3.55349e-09
7.42397e-10
-4.13352e-09
7.84916e-10
-4.74283e-09
8.24428e-10
-5.37934e-09
8.60812e-10
-6.04093e-09
8.94331e-10
-6.72564e-09
9.24952e-10
-7.43148e-09
9.5293e-10
-8.1566e-09
9.78234e-10
-8.89917e-09
1.00119e-09
-9.65736e-09
1.02167e-09
-1.04296e-08
1.03996e-09
-1.12142e-08
1.05609e-09
-1.20094e-08
1.0701e-09
-1.2814e-08
1.08211e-09
-1.36262e-08
1.09224e-09
-1.44447e-08
1.10044e-09
-1.52679e-08
1.10671e-09
-1.60945e-08
1.11115e-09
-1.69228e-08
1.11366e-09
-1.77515e-08
1.11419e-09
-1.85791e-08
1.11277e-09
-1.9404e-08
1.10932e-09
-2.02249e-08
1.10373e-09
-2.104e-08
1.09599e-09
-2.18479e-08
1.08617e-09
-2.26472e-08
1.07428e-09
-2.34364e-08
1.06039e-09
-2.42142e-08
1.04466e-09
-2.49793e-08
1.02719e-09
-2.57304e-08
1.00807e-09
-2.64665e-08
9.87388e-10
-2.71865e-08
9.65271e-10
-2.78893e-08
9.41892e-10
-2.8574e-08
9.17329e-10
-2.92399e-08
8.91682e-10
-2.9886e-08
8.65064e-10
-3.05117e-08
8.37529e-10
-3.11162e-08
8.091e-10
-3.16987e-08
7.79762e-10
-3.22586e-08
7.49519e-10
-3.27952e-08
7.18398e-10
-3.33077e-08
6.86392e-10
-3.37956e-08
6.53499e-10
-3.42582e-08
6.19746e-10
-3.46949e-08
5.85172e-10
-3.5105e-08
5.498e-10
-3.5488e-08
5.13679e-10
-3.58435e-08
4.76872e-10
-3.61708e-08
4.39401e-10
-3.64696e-08
4.01311e-10
-3.67393e-08
3.62647e-10
-3.69797e-08
3.23399e-10
-3.71903e-08
2.83625e-10
-3.73708e-08
2.43436e-10
-3.75209e-08
2.02845e-10
-3.76403e-08
1.61857e-10
-3.77287e-08
1.20538e-10
-3.7786e-08
7.88897e-11
-3.78119e-08
3.69044e-11
-3.78063e-08
-5.35277e-12
-3.7769e-08
-4.78489e-11
-3.76999e-08
-9.0604e-11
-3.75989e-08
-1.33558e-10
-3.74659e-08
-1.76601e-10
-3.7301e-08
-2.19695e-10
-3.71042e-08
-2.62809e-10
-3.68756e-08
-3.05839e-10
-3.66153e-08
-3.487e-10
-3.63236e-08
-3.91355e-10
-3.60007e-08
-4.33716e-10
-3.5647e-08
-4.75638e-10
-3.52628e-08
-5.16993e-10
-3.48488e-08
-5.57666e-10
-3.44054e-08
-5.97508e-10
-3.39334e-08
-6.36368e-10
-3.34336e-08
-6.74139e-10
-3.29067e-08
-7.10738e-10
-3.23536e-08
-7.46062e-10
-3.17753e-08
-7.80016e-10
-3.11729e-08
-8.12546e-10
-3.05472e-08
-8.43636e-10
-2.98993e-08
-8.7327e-10
-2.92303e-08
-9.01431e-10
-2.85414e-08
-9.28111e-10
-2.78334e-08
-9.53308e-10
-2.71077e-08
-9.77023e-10
-2.63652e-08
-9.99251e-10
-2.56071e-08
-1.01998e-09
-2.48347e-08
-1.03917e-09
-2.40491e-08
-1.05677e-09
-2.32515e-08
-1.07272e-09
-2.24433e-08
-1.08691e-09
-2.16259e-08
-1.09928e-09
-2.08005e-08
-1.10975e-09
-1.99688e-08
-1.11823e-09
-1.91323e-08
-1.12463e-09
-1.82924e-08
-1.12891e-09
-1.74507e-08
-1.13103e-09
-1.66089e-08
-1.13103e-09
-1.57686e-08
-1.12889e-09
-1.49313e-08
-1.1246e-09
-1.40986e-08
-1.11813e-09
-1.32723e-08
-1.10947e-09
-1.2454e-08
-1.09861e-09
-1.16454e-08
-1.08549e-09
-1.08482e-08
-1.0701e-09
-1.00641e-08
-1.05244e-09
-9.29476e-09
-1.03249e-09
-8.54198e-09
-1.01025e-09
-7.8075e-09
-9.85664e-10
-7.09305e-09
-9.58742e-10
-6.40037e-09
-9.29494e-10
-5.73119e-09
-8.97923e-10
-5.08727e-09
-8.64004e-10
-4.47033e-09
-8.27726e-10
-3.8821e-09
-7.89096e-10
-3.32428e-09
-7.48129e-10
-2.79859e-09
-7.04849e-10
-2.30668e-09
-6.59279e-10
-1.85015e-09
-6.11462e-10
-1.43051e-09
-5.61519e-10
-1.04912e-09
-5.09605e-10
-7.0727e-10
-4.55895e-10
-4.06057e-10
-4.00637e-10
-1.46359e-10
-3.44098e-10
7.12072e-11
-2.86604e-10
2.46358e-10
-2.28616e-10
3.79207e-10
-1.70655e-10
4.7036e-10
-1.13406e-10
5.21082e-10
-5.77985e-11
5.33458e-10
-4.93106e-12
5.10612e-10
4.37596e-11
4.57012e-10
8.63878e-11
3.78827e-10
1.20512e-10
2.84371e-10
1.42866e-10
1.84608e-10
1.49313e-10
9.34776e-11
1.34894e-10
2.70098e-11
9.5063e-11
3.26768e-11
3.10988e-11
-5.80725e-11
1.05571e-10
-1.60274e-10
2.07519e-10
-2.3437e-10
3.16029e-10
-2.60625e-10
4.12123e-10
-2.44596e-10
4.80567e-10
-1.95536e-10
5.09249e-10
-1.21194e-10
4.89131e-10
-2.82102e-11
4.13405e-10
7.85342e-11
2.77208e-10
1.95108e-10
7.72712e-11
3.1819e-10
-1.88535e-10
4.45404e-10
-5.21216e-10
5.74608e-10
-9.20912e-10
7.04171e-10
-1.38716e-09
8.32587e-10
-1.91897e-09
9.58758e-10
-2.51493e-09
1.0817e-09
-3.17317e-09
1.20069e-09
-3.89156e-09
1.31505e-09
-4.66771e-09
1.4243e-09
-5.49911e-09
1.52818e-09
-6.38302e-09
1.6263e-09
-7.31681e-09
1.7187e-09
-8.29733e-09
1.80494e-09
-9.32197e-09
1.88544e-09
-1.03875e-08
1.95991e-09
-1.14913e-08
2.02876e-09
-1.26302e-08
2.09182e-09
-1.38015e-08
2.1495e-09
-1.50021e-08
2.2018e-09
-1.62294e-08
2.24895e-09
-1.74805e-08
2.29102e-09
-1.87525e-08
2.32816e-09
-2.0043e-08
2.36057e-09
-2.13492e-08
2.38829e-09
-2.26684e-08
2.41146e-09
-2.39981e-08
2.43017e-09
-2.53358e-08
2.44443e-09
-2.6679e-08
2.45429e-09
-2.80251e-08
2.45975e-09
-2.93717e-08
2.46078e-09
-3.07163e-08
2.45742e-09
-3.20566e-08
2.44963e-09
-3.33903e-08
2.43737e-09
-3.4715e-08
2.42067e-09
-3.60284e-08
2.3996e-09
-3.73283e-08
2.37425e-09
-3.86127e-08
2.34476e-09
-3.98794e-08
2.31134e-09
-4.11264e-08
2.27416e-09
-4.23517e-08
2.23337e-09
-4.35535e-08
2.18919e-09
-4.473e-08
2.14178e-09
-4.58795e-08
2.09137e-09
-4.70003e-08
2.03814e-09
-4.80908e-08
1.98225e-09
-4.91497e-08
1.9239e-09
-5.01753e-08
1.86316e-09
-5.11663e-08
1.80011e-09
-5.21214e-08
1.73485e-09
-5.30393e-08
1.6674e-09
-5.39187e-08
1.59784e-09
-5.47586e-08
1.52622e-09
-5.55576e-08
1.45258e-09
-5.63149e-08
1.377e-09
-5.70293e-08
1.29957e-09
-5.76998e-08
1.22036e-09
-5.83256e-08
1.13949e-09
-5.89058e-08
1.05706e-09
-5.94396e-08
9.73174e-10
-5.99262e-08
8.87907e-10
-6.03649e-08
8.01351e-10
-6.07551e-08
7.13592e-10
-6.10962e-08
6.24738e-10
-6.13877e-08
5.34908e-10
-6.16291e-08
4.4421e-10
-6.18199e-08
3.52729e-10
-6.19599e-08
2.60529e-10
-6.20487e-08
1.67689e-10
-6.20861e-08
7.43116e-11
-6.20719e-08
-1.95325e-11
-6.2006e-08
-1.13782e-10
-6.18883e-08
-2.08313e-10
-6.17189e-08
-3.02998e-10
-6.14977e-08
-3.97749e-10
-6.1225e-08
-4.92426e-10
-6.09009e-08
-5.86848e-10
-6.05259e-08
-6.80894e-10
-6.01001e-08
-7.74456e-10
-5.96241e-08
-8.67339e-10
-5.90985e-08
-9.59333e-10
-5.85239e-08
-1.05029e-09
-5.79009e-08
-1.14e-09
-5.72303e-08
-1.2282e-09
-5.65132e-08
-1.31462e-09
-5.57505e-08
-1.3991e-09
-5.49432e-08
-1.48145e-09
-5.40925e-08
-1.56142e-09
-5.31997e-08
-1.63882e-09
-5.22662e-08
-1.71356e-09
-5.12932e-08
-1.7855e-09
-5.02824e-08
-1.85449e-09
-4.92352e-08
-1.92044e-09
-4.81533e-08
-1.98335e-09
-4.70383e-08
-2.04313e-09
-4.58919e-08
-2.09967e-09
-4.4716e-08
-2.15293e-09
-4.35124e-08
-2.20287e-09
-4.2283e-08
-2.24942e-09
-4.10297e-08
-2.29245e-09
-3.97546e-08
-2.33184e-09
-3.84598e-08
-2.36748e-09
-3.71475e-08
-2.39925e-09
-3.58198e-08
-2.42696e-09
-3.44791e-08
-2.45046e-09
-3.31277e-08
-2.46961e-09
-3.1768e-08
-2.48431e-09
-3.04025e-08
-2.49443e-09
-2.90337e-08
-2.49989e-09
-2.76641e-08
-2.50063e-09
-2.62963e-08
-2.49665e-09
-2.4933e-08
-2.48788e-09
-2.35769e-08
-2.47424e-09
-2.22307e-08
-2.45569e-09
-2.08971e-08
-2.43219e-09
-1.95789e-08
-2.40368e-09
-1.82789e-08
-2.37011e-09
-1.69999e-08
-2.33145e-09
-1.57447e-08
-2.28766e-09
-1.45162e-08
-2.23874e-09
-1.33172e-08
-2.18465e-09
-1.21506e-08
-2.12539e-09
-1.10191e-08
-2.06097e-09
-9.92565e-09
-1.99139e-09
-8.87297e-09
-1.91669e-09
-7.86383e-09
-1.83687e-09
-6.90094e-09
-1.75198e-09
-5.98698e-09
-1.66209e-09
-5.12454e-09
-1.5673e-09
-4.31608e-09
-1.46774e-09
-3.56394e-09
-1.3636e-09
-2.87032e-09
-1.25514e-09
-2.23723e-09
-1.1427e-09
-1.66643e-09
-1.02669e-09
-1.15943e-09
-9.07645e-10
-7.17341e-10
-7.86183e-10
-3.40888e-10
-6.63059e-10
-3.02665e-11
-5.39241e-10
2.14969e-10
-4.15893e-10
3.96047e-10
-2.94484e-10
5.15137e-10
-1.76888e-10
5.75601e-10
-6.53991e-11
5.82276e-10
3.70825e-11
5.41803e-10
1.26861e-10
4.63032e-10
1.99281e-10
3.57394e-10
2.48501e-10
2.39311e-10
2.67391e-10
1.26501e-10
2.47702e-10
3.9416e-11
1.82146e-10
7.20918e-11
3.17799e-11
-8.98474e-11
1.06339e-10
-2.34833e-10
2.0425e-10
-3.3228e-10
3.00945e-10
-3.57315e-10
3.74933e-10
-3.18588e-10
4.08919e-10
-2.29515e-10
3.89178e-10
-1.01457e-10
3.04944e-10
5.60277e-11
1.48179e-10
2.353e-10
-8.70512e-11
4.30339e-10
-4.04869e-10
6.3601e-10
-8.0774e-10
8.48276e-10
-1.29716e-09
1.06402e-09
-1.87343e-09
1.28044e-09
-2.53618e-09
1.49534e-09
-3.28429e-09
1.70686e-09
-4.11603e-09
1.91344e-09
-5.0293e-09
2.11396e-09
-6.02165e-09
2.30739e-09
-7.09024e-09
2.49289e-09
-8.23199e-09
2.66993e-09
-9.44367e-09
2.83799e-09
-1.07217e-08
2.99676e-09
-1.20629e-08
3.14606e-09
-1.34632e-08
3.28582e-09
-1.49192e-08
3.41586e-09
-1.64269e-08
3.53653e-09
-1.79827e-08
3.6476e-09
-1.95827e-08
3.7495e-09
-2.12231e-08
3.84214e-09
-2.29e-08
3.92588e-09
-2.46098e-08
4.00078e-09
-2.63486e-08
4.06703e-09
-2.81128e-08
4.12477e-09
-2.98987e-08
4.17416e-09
-3.17026e-08
4.21539e-09
-3.3521e-08
4.24853e-09
-3.53503e-08
4.2737e-09
-3.7187e-08
4.29101e-09
-3.90277e-08
4.30049e-09
-4.08692e-08
4.30221e-09
-4.2708e-08
4.29622e-09
-4.45409e-08
4.28254e-09
-4.63647e-08
4.26121e-09
-4.81764e-08
4.23239e-09
-4.9973e-08
4.19619e-09
-5.17515e-08
4.15277e-09
-5.35091e-08
4.10236e-09
-5.5243e-08
4.04522e-09
-5.69504e-08
3.98158e-09
-5.86287e-08
3.91168e-09
-6.02754e-08
3.83583e-09
-6.18879e-08
3.7543e-09
-6.34639e-08
3.66735e-09
-6.5001e-08
3.57527e-09
-6.6497e-08
3.47829e-09
-6.79498e-08
3.37666e-09
-6.93572e-08
3.27058e-09
-7.07173e-08
3.16019e-09
-7.20281e-08
3.04566e-09
-7.32879e-08
2.92715e-09
-7.44948e-08
2.80475e-09
-7.56472e-08
2.67862e-09
-7.67435e-08
2.54891e-09
-7.77823e-08
2.41575e-09
-7.8762e-08
2.27932e-09
-7.96814e-08
2.13978e-09
-8.05392e-08
1.99728e-09
-8.13342e-08
1.85203e-09
-8.20652e-08
1.70421e-09
-8.27313e-08
1.55398e-09
-8.33315e-08
1.40151e-09
-8.38648e-08
1.24697e-09
-8.43306e-08
1.09054e-09
-8.47282e-08
9.3245e-10
-8.50568e-08
7.72835e-10
-8.5316e-08
6.11875e-10
-8.55052e-08
4.49779e-10
-8.56242e-08
2.86679e-10
-8.56726e-08
1.22722e-10
-8.56503e-08
-4.18717e-11
-8.55571e-08
-2.06934e-10
-8.53931e-08
-3.72323e-10
-8.51583e-08
-5.37795e-10
-8.4853e-08
-7.03094e-10
-8.44773e-08
-8.68041e-10
-8.40318e-08
-1.03242e-09
-8.35167e-08
-1.19593e-09
-8.29329e-08
-1.35832e-09
-8.22808e-08
-1.51937e-09
-8.15614e-08
-1.6788e-09
-8.07754e-08
-1.83626e-09
-7.9924e-08
-1.99143e-09
-7.90081e-08
-2.14402e-09
-7.80291e-08
-2.29367e-09
-7.69882e-08
-2.44004e-09
-7.58868e-08
-2.58282e-09
-7.47265e-08
-2.72174e-09
-7.35088e-08
-2.85651e-09
-7.22355e-08
-2.98684e-09
-7.09085e-08
-3.11252e-09
-6.95296e-08
-3.23336e-09
-6.81009e-08
-3.34915e-09
-6.66245e-08
-3.45972e-09
-6.51028e-08
-3.5649e-09
-6.35379e-08
-3.66454e-09
-6.19323e-08
-3.75849e-09
-6.02886e-08
-3.84658e-09
-5.86094e-08
-3.92863e-09
-5.68974e-08
-4.00447e-09
-5.51553e-08
-4.0739e-09
-5.33861e-08
-4.1367e-09
-5.15927e-08
-4.19263e-09
-4.97782e-08
-4.24148e-09
-4.79457e-08
-4.28301e-09
-4.60983e-08
-4.31702e-09
-4.42393e-08
-4.34329e-09
-4.23721e-08
-4.36163e-09
-4.05e-08
-4.37192e-09
-3.86266e-08
-4.37404e-09
-3.67554e-08
-4.36787e-09
-3.489e-08
-4.35329e-09
-3.30341e-08
-4.3302e-09
-3.11913e-08
-4.29849e-09
-2.93654e-08
-4.25809e-09
-2.75601e-08
-4.2089e-09
-2.57794e-08
-4.15083e-09
-2.4027e-08
-4.08385e-09
-2.23068e-08
-4.00791e-09
-2.06225e-08
-3.92297e-09
-1.89782e-08
-3.82902e-09
-1.73775e-08
-3.72605e-09
-1.58244e-08
-3.6141e-09
-1.43225e-08
-3.49322e-09
-1.28757e-08
-3.36347e-09
-1.14877e-08
-3.22492e-09
-1.0162e-08
-3.07772e-09
-8.902e-09
-2.92203e-09
-7.7112e-09
-2.75809e-09
-6.59274e-09
-2.5862e-09
-5.54961e-09
-2.40673e-09
-4.58459e-09
-2.22017e-09
-3.70016e-09
-2.02713e-09
-2.89848e-09
-1.82837e-09
-2.18134e-09
-1.62479e-09
-1.55001e-09
-1.41751e-09
-1.00522e-09
-1.20785e-09
-5.46998e-10
-9.97461e-10
-1.74549e-10
-7.88341e-10
1.13913e-10
-5.82948e-10
3.21365e-10
-3.84343e-10
4.5222e-10
-1.96255e-10
5.12605e-10
-2.33034e-11
5.10708e-10
1.28758e-10
4.57127e-10
2.5286e-10
3.65234e-10
3.40391e-10
2.51586e-10
3.81037e-10
1.36362e-10
3.62925e-10
4.34875e-11
2.75017e-10
1.15579e-10
2.70139e-11
-1.16861e-10
9.02941e-11
-2.98123e-10
1.69334e-10
-4.11317e-10
2.37248e-10
-4.25236e-10
2.70886e-10
-3.5223e-10
2.51693e-10
-2.10319e-10
1.64916e-10
-1.46744e-11
-1.19803e-12
2.22141e-10
-2.55542e-10
4.89643e-10
-6.04697e-10
7.79485e-10
-1.05342e-09
1.08474e-09
-1.60492e-09
1.39978e-09
-2.26068e-09
1.71979e-09
-3.02136e-09
2.04113e-09
-3.8865e-09
2.36047e-09
-4.85497e-09
2.67534e-09
-5.925e-09
2.98347e-09
-7.09416e-09
3.28313e-09
-8.35955e-09
3.57278e-09
-9.71807e-09
3.8514e-09
-1.1166e-08
4.11788e-09
-1.26998e-08
4.37176e-09
-1.43153e-08
4.61224e-09
-1.60083e-08
4.83912e-09
-1.77744e-08
5.05194e-09
-1.96095e-08
5.25091e-09
-2.15087e-08
5.43567e-09
-2.34675e-08
5.60645e-09
-2.54813e-08
5.76328e-09
-2.75454e-08
5.90627e-09
-2.96552e-08
6.03564e-09
-3.18059e-08
6.15147e-09
-3.39929e-08
6.25404e-09
-3.62116e-08
6.34349e-09
-3.84574e-08
6.42001e-09
-4.07258e-08
6.48379e-09
-4.30123e-08
6.53499e-09
-4.53124e-08
6.5738e-09
-4.76217e-08
6.60035e-09
-4.9936e-08
6.6148e-09
-5.22511e-08
6.6173e-09
-5.45629e-08
6.60795e-09
-5.68672e-08
6.5869e-09
-5.91603e-08
6.55428e-09
-6.14382e-08
6.5103e-09
-6.36972e-08
6.45519e-09
-6.59336e-08
6.38919e-09
-6.81439e-08
6.31266e-09
-7.03246e-08
6.22588e-09
-7.24722e-08
6.12919e-09
-7.45835e-08
6.02295e-09
-7.66552e-08
5.90753e-09
-7.86842e-08
5.78331e-09
-8.06675e-08
5.65061e-09
-8.2602e-08
5.50983e-09
-8.44851e-08
5.36133e-09
-8.63138e-08
5.2054e-09
-8.80856e-08
5.04233e-09
-8.97978e-08
4.87244e-09
-9.14481e-08
4.69595e-09
-9.30341e-08
4.51313e-09
-9.45535e-08
4.32422e-09
-9.60044e-08
4.12943e-09
-9.73845e-08
3.92905e-09
-9.86921e-08
3.72331e-09
-9.99252e-08
3.51249e-09
-1.01082e-07
3.29684e-09
-1.02162e-07
3.07664e-09
-1.03162e-07
2.85218e-09
-1.04081e-07
2.62374e-09
-1.04919e-07
2.39157e-09
-1.05673e-07
2.15597e-09
-1.06344e-07
1.91724e-09
-1.06929e-07
1.67563e-09
-1.07428e-07
1.43145e-09
-1.0784e-07
1.185e-09
-1.08165e-07
9.36531e-10
-1.08401e-07
6.8634e-10
-1.08549e-07
4.34734e-10
-1.08608e-07
1.81982e-10
-1.08579e-07
-7.16533e-11
-1.0846e-07
-3.25856e-10
-1.08252e-07
-5.80296e-10
-1.07955e-07
-8.34664e-10
-1.07569e-07
-1.08864e-09
-1.07096e-07
-1.34186e-09
-1.06534e-07
-1.59395e-09
-1.05885e-07
-1.84456e-09
-1.0515e-07
-2.09333e-09
-1.0433e-07
-2.33983e-09
-1.03425e-07
-2.58365e-09
-1.02437e-07
-2.8244e-09
-1.01367e-07
-3.06163e-09
-1.00216e-07
-3.29484e-09
-9.89859e-08
-3.5236e-09
-9.76785e-08
-3.74748e-09
-9.62953e-08
-3.96605e-09
-9.48382e-08
-4.17885e-09
-9.33092e-08
-4.38546e-09
-9.17105e-08
-4.58555e-09
-9.00443e-08
-4.77873e-09
-8.8313e-08
-4.96466e-09
-8.65191e-08
-5.143e-09
-8.46654e-08
-5.31349e-09
-8.27544e-08
-5.47583e-09
-8.07893e-08
-5.62969e-09
-7.8773e-08
-5.7748e-09
-7.67086e-08
-5.91092e-09
-7.45995e-08
-6.03774e-09
-7.24491e-08
-6.15494e-09
-7.02608e-08
-6.2622e-09
-6.80383e-08
-6.35922e-09
-6.57852e-08
-6.44568e-09
-6.35054e-08
-6.52125e-09
-6.12029e-08
-6.58559e-09
-5.88815e-08
-6.6384e-09
-5.65454e-08
-6.6794e-09
-5.41987e-08
-6.70833e-09
-5.18456e-08
-6.72493e-09
-4.94907e-08
-6.72901e-09
-4.71382e-08
-6.72036e-09
-4.47927e-08
-6.69881e-09
-4.24587e-08
-6.66419e-09
-4.01408e-08
-6.61633e-09
-3.78438e-08
-6.5551e-09
-3.55723e-08
-6.48037e-09
-3.33311e-08
-6.39204e-09
-3.1125e-08
-6.29001e-09
-2.89586e-08
-6.17424e-09
-2.68369e-08
-6.0447e-09
-2.47646e-08
-5.90138e-09
-2.27463e-08
-5.74431e-09
-2.07869e-08
-5.57353e-09
-1.88909e-08
-5.38916e-09
-1.70631e-08
-5.19133e-09
-1.53078e-08
-4.98023e-09
-1.36294e-08
-4.75611e-09
-1.20321e-08
-4.51929e-09
-1.052e-08
-4.27019e-09
-9.09692e-09
-4.00932e-09
-7.76634e-09
-3.73731e-09
-6.53155e-09
-3.45495e-09
-5.39546e-09
-3.16322e-09
-4.36054e-09
-2.86329e-09
-3.42877e-09
-2.55656e-09
-2.60156e-09
-2.24474e-09
-1.87958e-09
-1.92983e-09
-1.26272e-09
-1.61432e-09
-7.49862e-10
-1.3012e-09
-3.38751e-10
-9.94063e-10
-2.57817e-11
-6.97314e-10
1.94239e-10
-4.16275e-10
3.28354e-10
-1.57421e-10
3.85771e-10
7.13382e-11
3.7819e-10
2.6044e-10
3.20166e-10
3.98413e-10
2.29532e-10
4.71669e-10
1.27992e-10
4.64465e-10
4.16305e-11
3.61376e-10
1.57209e-10
1.87893e-11
-1.35644e-10
6.19641e-11
-3.41302e-10
1.09817e-10
-4.59173e-10
1.34698e-10
-4.5011e-10
1.12633e-10
-3.30164e-10
2.44277e-11
-1.2212e-10
-1.45271e-10
1.5502e-10
-4.08474e-10
4.85349e-10
-7.74866e-10
8.56035e-10
-1.25141e-09
1.25602e-09
-1.84326e-09
1.67659e-09
-2.55364e-09
2.11016e-09
-3.38469e-09
2.55084e-09
-4.33703e-09
2.99347e-09
-5.41037e-09
3.43381e-09
-6.60337e-09
3.86833e-09
-7.91412e-09
4.29422e-09
-9.33994e-09
4.70895e-09
-1.08778e-08
5.11066e-09
-1.2524e-08
5.49764e-09
-1.42748e-08
5.86859e-09
-1.61255e-08
6.22253e-09
-1.80719e-08
6.5586e-09
-2.0109e-08
6.87627e-09
-2.22321e-08
7.17501e-09
-2.44358e-08
7.45464e-09
-2.6715e-08
7.71485e-09
-2.90644e-08
7.95586e-09
-3.14785e-08
8.17739e-09
-3.3952e-08
8.37973e-09
-3.64792e-08
8.56289e-09
-3.90549e-08
8.72709e-09
-4.16734e-08
8.87252e-09
-4.43292e-08
8.99937e-09
-4.70171e-08
9.10789e-09
-4.97316e-08
9.1983e-09
-5.24675e-08
9.27083e-09
-5.52194e-08
9.32571e-09
-5.79822e-08
9.36314e-09
-6.07507e-08
9.38337e-09
-6.35201e-08
9.38666e-09
-6.62853e-08
9.37319e-09
-6.90417e-08
9.34324e-09
-7.17845e-08
9.29708e-09
-7.45091e-08
9.23497e-09
-7.72112e-08
9.15726e-09
-7.98863e-08
9.06432e-09
-8.25302e-08
8.95656e-09
-8.51388e-08
8.8344e-09
-8.77078e-08
8.69826e-09
-9.02335e-08
8.54864e-09
-9.2712e-08
8.38598e-09
-9.51394e-08
8.21074e-09
-9.75122e-08
8.02343e-09
-9.98269e-08
7.82447e-09
-1.0208e-07
7.61437e-09
-1.04268e-07
7.39353e-09
-1.06388e-07
7.16236e-09
-1.08437e-07
6.92128e-09
-1.10412e-07
6.67068e-09
-1.12309e-07
6.41093e-09
-1.14128e-07
6.1424e-09
-1.15864e-07
5.86545e-09
-1.17515e-07
5.58046e-09
-1.1908e-07
5.28783e-09
-1.20555e-07
4.98791e-09
-1.21939e-07
4.68111e-09
-1.2323e-07
4.36785e-09
-1.24427e-07
4.04851e-09
-1.25527e-07
3.7235e-09
-1.26528e-07
3.39321e-09
-1.2743e-07
3.05806e-09
-1.28231e-07
2.71845e-09
-1.28931e-07
2.37482e-09
-1.29527e-07
2.02758e-09
-1.30019e-07
1.67712e-09
-1.30406e-07
1.32389e-09
-1.30688e-07
9.6831e-10
-1.30864e-07
6.10777e-10
-1.30934e-07
2.51718e-10
-1.30897e-07
-1.08407e-10
-1.30754e-07
-4.69178e-10
-1.30504e-07
-8.30154e-10
-1.30148e-07
-1.19084e-09
-1.29686e-07
-1.55075e-09
-1.29118e-07
-1.90944e-09
-1.28446e-07
-2.26638e-09
-1.27669e-07
-2.62103e-09
-1.2679e-07
-2.97288e-09
-1.25808e-07
-3.32141e-09
-1.24726e-07
-3.66606e-09
-1.23544e-07
-4.00622e-09
-1.22264e-07
-4.34133e-09
-1.20888e-07
-4.6708e-09
-1.19418e-07
-4.99402e-09
-1.17855e-07
-5.3104e-09
-1.16202e-07
-5.61937e-09
-1.1446e-07
-5.92035e-09
-1.12633e-07
-6.21278e-09
-1.10722e-07
-6.49612e-09
-1.08731e-07
-6.76987e-09
-1.06662e-07
-7.03353e-09
-1.04519e-07
-7.28664e-09
-1.02303e-07
-7.52871e-09
-1.0002e-07
-7.75929e-09
-9.76716e-08
-7.97797e-09
-9.52621e-08
-8.1843e-09
-9.27952e-08
-8.37786e-09
-9.02747e-08
-8.55821e-09
-8.77048e-08
-8.72489e-09
-8.50895e-08
-8.87748e-09
-8.24332e-08
-9.01554e-09
-7.97402e-08
-9.13861e-09
-7.70153e-08
-9.24623e-09
-7.42629e-08
-9.33799e-09
-7.14878e-08
-9.41348e-09
-6.86949e-08
-9.47229e-09
-6.58891e-08
-9.51407e-09
-6.30756e-08
-9.53846e-09
-6.02595e-08
-9.54516e-09
-5.74459e-08
-9.53389e-09
-5.46404e-08
-9.50438e-09
-5.18482e-08
-9.45637e-09
-4.90748e-08
-9.38966e-09
-4.63259e-08
-9.30405e-09
-4.36069e-08
-9.19938e-09
-4.09234e-08
-9.07549e-09
-3.82812e-08
-8.93228e-09
-3.56857e-08
-8.76969e-09
-3.31427e-08
-8.5877e-09
-3.06578e-08
-8.38632e-09
-2.82365e-08
-8.16562e-09
-2.58843e-08
-7.92569e-09
-2.36068e-08
-7.66673e-09
-2.14091e-08
-7.38897e-09
-1.92966e-08
-7.09272e-09
-1.72743e-08
-6.77841e-09
-1.53471e-08
-6.44654e-09
-1.35195e-08
-6.09774e-09
-1.1796e-08
-5.73281e-09
-1.01806e-08
-5.3527e-09
-8.67705e-09
-4.95855e-09
-7.28849e-09
-4.55178e-09
-6.01771e-09
-4.13407e-09
-4.86687e-09
-3.7074e-09
-3.83744e-09
-3.27416e-09
-2.93011e-09
-2.83717e-09
-2.14461e-09
-2.39982e-09
-1.47959e-09
-1.96621e-09
-9.32463e-10
-1.5412e-09
-4.99177e-10
-1.1306e-09
-1.74018e-10
-7.41435e-10
5.06475e-11
-3.82089e-10
1.84639e-10
-6.26535e-11
2.40261e-10
2.04816e-10
2.3268e-10
4.05991e-10
1.80358e-10
5.2399e-10
1.05696e-10
5.39127e-10
3.55819e-11
4.31491e-10
1.92791e-10
8.42402e-12
-1.44074e-10
2.49755e-11
-3.57845e-10
3.20727e-11
-4.66274e-10
2.20139e-12
-4.20243e-10
-8.84209e-11
-2.39537e-10
-2.58955e-10
4.84134e-11
-5.24918e-10
4.20981e-10
-8.98656e-10
8.59087e-10
-1.38957e-09
1.34695e-09
-2.00516e-09
1.87161e-09
-2.7506e-09
2.42203e-09
-3.62965e-09
2.98922e-09
-4.64423e-09
3.56541e-09
-5.79497e-09
4.14423e-09
-7.08175e-09
4.72058e-09
-8.50312e-09
5.28971e-09
-1.0057e-08
5.84814e-09
-1.17407e-08
6.39258e-09
-1.35506e-08
6.92057e-09
-1.54828e-08
7.42984e-09
-1.7533e-08
7.9188e-09
-1.96964e-08
8.3859e-09
-2.1968e-08
8.83024e-09
-2.43424e-08
9.25067e-09
-2.68142e-08
9.64678e-09
-2.93775e-08
1.00179e-08
-3.20265e-08
1.03639e-08
-3.47552e-08
1.06845e-08
-3.75575e-08
1.09797e-08
-4.04273e-08
1.12495e-08
-4.33583e-08
1.14939e-08
-4.63443e-08
1.17131e-08
-4.93791e-08
1.19073e-08
-5.24565e-08
1.20768e-08
-5.55703e-08
1.22217e-08
-5.87143e-08
1.23423e-08
-6.18825e-08
1.24391e-08
-6.50689e-08
1.25121e-08
-6.82676e-08
1.25618e-08
-7.14727e-08
1.25885e-08
-7.46785e-08
1.25924e-08
-7.78793e-08
1.2574e-08
-8.10697e-08
1.25336e-08
-8.42443e-08
1.24717e-08
-8.73977e-08
1.23884e-08
-9.0525e-08
1.22845e-08
-9.3621e-08
1.21603e-08
-9.66808e-08
1.20164e-08
-9.96996e-08
1.18532e-08
-1.02673e-07
1.16714e-08
-1.05596e-07
1.14716e-08
-1.08464e-07
1.12542e-08
-1.11273e-07
1.10199e-08
-1.14019e-07
1.07694e-08
-1.16698e-07
1.05031e-08
-1.19305e-07
1.02217e-08
-1.21837e-07
9.92576e-09
-1.24291e-07
9.61579e-09
-1.26662e-07
9.29236e-09
-1.28947e-07
8.95599e-09
-1.31143e-07
8.60719e-09
-1.33247e-07
8.2465e-09
-1.35256e-07
7.87443e-09
-1.37168e-07
7.4915e-09
-1.38978e-07
7.09825e-09
-1.40685e-07
6.69519e-09
-1.42287e-07
6.28285e-09
-1.43781e-07
5.8618e-09
-1.45165e-07
5.43261e-09
-1.46437e-07
4.99577e-09
-1.47596e-07
4.55184e-09
-1.48639e-07
4.10142e-09
-1.49566e-07
3.64505e-09
-1.50374e-07
3.18327e-09
-1.51063e-07
2.71669e-09
-1.51632e-07
2.24586e-09
-1.5208e-07
1.77135e-09
-1.52405e-07
1.29376e-09
-1.52608e-07
8.13653e-10
-1.52688e-07
3.31611e-10
-1.52645e-07
-1.51755e-10
-1.52478e-07
-6.35834e-10
-1.52188e-07
-1.12002e-09
-1.51775e-07
-1.60368e-09
-1.5124e-07
-2.08615e-09
-1.50582e-07
-2.56679e-09
-1.49804e-07
-3.04493e-09
-1.48905e-07
-3.51988e-09
-1.47887e-07
-3.99094e-09
-1.46751e-07
-4.4574e-09
-1.45498e-07
-4.91855e-09
-1.44131e-07
-5.37364e-09
-1.4265e-07
-5.82191e-09
-1.41059e-07
-6.2626e-09
-1.39358e-07
-6.69496e-09
-1.3755e-07
-7.11826e-09
-1.35638e-07
-7.53172e-09
-1.33623e-07
-7.93459e-09
-1.3151e-07
-8.32614e-09
-1.293e-07
-8.7057e-09
-1.26998e-07
-9.07257e-09
-1.24605e-07
-9.42606e-09
-1.22126e-07
-9.76552e-09
-1.19565e-07
-1.00903e-08
-1.16924e-07
-1.03998e-08
-1.14209e-07
-1.06935e-08
-1.11422e-07
-1.09706e-08
-1.0857e-07
-1.12306e-08
-1.05655e-07
-1.14729e-08
-1.02683e-07
-1.16969e-08
-9.96586e-08
-1.19019e-08
-9.65866e-08
-1.20875e-08
-9.34721e-08
-1.22531e-08
-9.03204e-08
-1.2398e-08
-8.71367e-08
-1.25216e-08
-8.39267e-08
-1.26235e-08
-8.06958e-08
-1.27032e-08
-7.74497e-08
-1.27601e-08
-7.41944e-08
-1.27938e-08
-7.09357e-08
-1.28039e-08
-6.76796e-08
-1.279e-08
-6.44322e-08
-1.27517e-08
-6.11999e-08
-1.26887e-08
-5.79888e-08
-1.26008e-08
-5.48052e-08
-1.24876e-08
-5.16556e-08
-1.2349e-08
-4.85463e-08
-1.21848e-08
-4.54837e-08
-1.19948e-08
-4.24743e-08
-1.17791e-08
-3.95245e-08
-1.15375e-08
-3.66407e-08
-1.12702e-08
-3.38291e-08
-1.09772e-08
-3.10961e-08
-1.06587e-08
-2.84478e-08
-1.0315e-08
-2.58902e-08
-9.94657e-09
-2.34291e-08
-9.55375e-09
-2.10704e-08
-9.13717e-09
-1.88193e-08
-8.6976e-09
-1.66811e-08
-8.23594e-09
-1.46607e-08
-7.75327e-09
-1.27624e-08
-7.25094e-09
-1.09904e-08
-6.73052e-09
-9.3483e-09
-6.19393e-09
-7.83896e-09
-5.64341e-09
-6.46476e-09
-5.08161e-09
-5.22726e-09
-4.51166e-09
-4.12713e-09
-3.9373e-09
-3.16405e-09
-3.3629e-09
-2.33654e-09
-2.79373e-09
-1.64178e-09
-2.23595e-09
-1.07549e-09
-1.6969e-09
-6.31649e-10
-1.18528e-09
-3.02318e-10
-7.1142e-10
-7.74086e-11
-2.87564e-10
5.56048e-11
7.18005e-11
1.12039e-10
3.49555e-10
1.10421e-10
5.25605e-10
7.30981e-11
5.7645e-10
2.66195e-11
4.77971e-10
2.1941e-10
-3.40381e-12
-1.40672e-10
-1.79291e-11
-3.43324e-10
-5.90808e-11
-4.25127e-10
-1.529e-10
-3.2642e-10
-3.22443e-10
-6.99954e-11
-5.86531e-10
3.12508e-10
-9.60002e-10
7.94451e-10
-1.45521e-09
1.35429e-09
-2.08159e-09
1.97334e-09
-2.84649e-09
2.6365e-09
-3.75508e-09
3.33062e-09
-4.81093e-09
4.04507e-09
-6.01618e-09
4.77065e-09
-7.3717e-09
5.49975e-09
-8.87683e-09
6.22572e-09
-1.05303e-08
6.94321e-09
-1.23298e-08
7.64764e-09
-1.42723e-08
8.33504e-09
-1.6354e-08
9.00229e-09
-1.85708e-08
9.64665e-09
-2.09179e-08
1.02659e-08
-2.33901e-08
1.08581e-08
-2.59819e-08
1.1422e-08
-2.86875e-08
1.19563e-08
-3.15008e-08
1.24601e-08
-3.44156e-08
1.29327e-08
-3.74252e-08
1.33736e-08
-4.05232e-08
1.37825e-08
-4.37029e-08
1.41594e-08
-4.69573e-08
1.45039e-08
-5.02797e-08
1.48162e-08
-5.3663e-08
1.50965e-08
-5.71005e-08
1.53448e-08
-6.05852e-08
1.55615e-08
-6.41102e-08
1.57467e-08
-6.76687e-08
1.59008e-08
-7.12539e-08
1.60242e-08
-7.48591e-08
1.61173e-08
-7.84776e-08
1.61804e-08
-8.2103e-08
1.62139e-08
-8.57288e-08
1.62182e-08
-8.93488e-08
1.6194e-08
-9.29567e-08
1.61415e-08
-9.65465e-08
1.60614e-08
-1.00112e-07
1.59542e-08
-1.03648e-07
1.58204e-08
-1.07149e-07
1.56607e-08
-1.10608e-07
1.54757e-08
-1.14021e-07
1.52661e-08
-1.17382e-07