/*--------------------------------*- C++ -*----------------------------------*\
  =========                 |
  \\      /  F ield         | OpenFOAM: The Open Source CFD Toolbox
   \\    /   O peration     | Website:  https://openfoam.org
    \\  /    A nd           | Version:  7
     \\/     M anipulation  |
\*---------------------------------------------------------------------------*/
FoamFile
{
    version     2.0;
    format      ascii;
    class       volVectorField;
    location    "0.0625";
    object      U;
}
// * * * * * * * * * * * * * * * * * * * * * * * * * * * * * * * * * * * * * //

dimensions      [0 1 -1 0 0 0 0];

internalField   nonuniform List<vector> 
25600
(
(1.00073e-07 2.57712e-08 0)
(2.17199e-06 -1.59493e-06 0)
(8.05998e-06 -3.18923e-06 0)
(1.61402e-05 -3.98317e-06 0)
(2.49213e-05 -4.1981e-06 0)
(3.32452e-05 -4.03347e-06 0)
(4.03119e-05 -3.56483e-06 0)
(4.55794e-05 -2.91747e-06 0)
(4.87314e-05 -2.14486e-06 0)
(4.94057e-05 -1.25927e-06 0)
(4.74852e-05 -3.19277e-07 0)
(4.28456e-05 6.47204e-07 0)
(3.53716e-05 1.69626e-06 0)
(2.50768e-05 2.72624e-06 0)
(1.19631e-05 3.75318e-06 0)
(-3.89372e-06 4.71932e-06 0)
(-2.24391e-05 5.65061e-06 0)
(-4.35517e-05 6.54413e-06 0)
(-6.71218e-05 7.37842e-06 0)
(-9.30001e-05 8.13843e-06 0)
(-0.000121043 8.84161e-06 0)
(-0.000151112 9.4503e-06 0)
(-0.000183045 9.99435e-06 0)
(-0.000216669 1.04772e-05 0)
(-0.00025187 1.08825e-05 0)
(-0.000288462 1.12275e-05 0)
(-0.000326324 1.1535e-05 0)
(-0.000365346 1.17685e-05 0)
(-0.000405386 1.19807e-05 0)
(-0.000446348 1.21671e-05 0)
(-0.000488138 1.23106e-05 0)
(-0.000530667 1.24315e-05 0)
(-0.00057381 1.25461e-05 0)
(-0.000617541 1.26307e-05 0)
(-0.000661756 1.26993e-05 0)
(-0.000706367 1.2785e-05 0)
(-0.000751344 1.2866e-05 0)
(-0.000796609 1.29237e-05 0)
(-0.000842071 1.2967e-05 0)
(-0.000887679 1.29871e-05 0)
(-0.000933368 1.2969e-05 0)
(-0.000979041 1.29268e-05 0)
(-0.00102462 1.2879e-05 0)
(-0.00107002 1.28133e-05 0)
(-0.00111516 1.2716e-05 0)
(-0.00115991 1.25872e-05 0)
(-0.00120418 1.24186e-05 0)
(-0.0012479 1.2207e-05 0)
(-0.00129097 1.19589e-05 0)
(-0.0013333 1.16954e-05 0)
(-0.00137484 1.14235e-05 0)
(-0.00141551 1.11309e-05 0)
(-0.00145526 1.08222e-05 0)
(-0.00149402 1.05051e-05 0)
(-0.00153176 1.0182e-05 0)
(-0.00156844 9.85312e-06 0)
(-0.00160403 9.52521e-06 0)
(-0.0016385 9.20677e-06 0)
(-0.00167182 8.89015e-06 0)
(-0.00170398 8.57097e-06 0)
(-0.00173494 8.24478e-06 0)
(-0.00176466 7.91342e-06 0)
(-0.00179312 7.5888e-06 0)
(-0.00182028 7.25741e-06 0)
(-0.00184611 6.91003e-06 0)
(-0.00187058 6.5555e-06 0)
(-0.00189364 6.18682e-06 0)
(-0.00191527 5.8092e-06 0)
(-0.00193544 5.43444e-06 0)
(-0.00195413 5.04937e-06 0)
(-0.00197131 4.65322e-06 0)
(-0.00198695 4.25387e-06 0)
(-0.00200102 3.83866e-06 0)
(-0.00201351 3.40998e-06 0)
(-0.0020244 2.98389e-06 0)
(-0.00203366 2.55384e-06 0)
(-0.00204128 2.11383e-06 0)
(-0.00204725 1.6699e-06 0)
(-0.00205155 1.21452e-06 0)
(-0.00205415 7.42071e-07 0)
(-0.00205506 2.63844e-07 0)
(-0.00205424 -2.20012e-07 0)
(-0.00205168 -7.20582e-07 0)
(-0.00204736 -1.2338e-06 0)
(-0.00204127 -1.75184e-06 0)
(-0.0020334 -2.27992e-06 0)
(-0.00202373 -2.81993e-06 0)
(-0.00201228 -3.36483e-06 0)
(-0.00199903 -3.91374e-06 0)
(-0.00198398 -4.46878e-06 0)
(-0.00196713 -5.02426e-06 0)
(-0.00194851 -5.57453e-06 0)
(-0.00192813 -6.12016e-06 0)
(-0.001906 -6.65845e-06 0)
(-0.00188217 -7.18099e-06 0)
(-0.00185668 -7.68269e-06 0)
(-0.00182957 -8.16265e-06 0)
(-0.00180091 -8.6179e-06 0)
(-0.00177074 -9.04518e-06 0)
(-0.00173915 -9.44516e-06 0)
(-0.00170619 -9.81874e-06 0)
(-0.00167193 -1.01648e-05 0)
(-0.00163645 -1.04846e-05 0)
(-0.0015998 -1.07828e-05 0)
(-0.00156206 -1.10608e-05 0)
(-0.00152328 -1.13176e-05 0)
(-0.00148354 -1.1556e-05 0)
(-0.00144288 -1.17809e-05 0)
(-0.00140137 -1.19926e-05 0)
(-0.00135906 -1.21891e-05 0)
(-0.00131601 -1.23705e-05 0)
(-0.0012723 -1.25382e-05 0)
(-0.00122797 -1.2689e-05 0)
(-0.00118311 -1.28169e-05 0)
(-0.00113778 -1.29198e-05 0)
(-0.00109209 -1.29986e-05 0)
(-0.0010461 -1.30515e-05 0)
(-0.000999917 -1.30745e-05 0)
(-0.000953621 -1.30682e-05 0)
(-0.000907308 -1.30384e-05 0)
(-0.000861068 -1.29871e-05 0)
(-0.000814982 -1.29106e-05 0)
(-0.000769135 -1.28061e-05 0)
(-0.000723616 -1.26772e-05 0)
(-0.000678515 -1.25292e-05 0)
(-0.00063392 -1.23618e-05 0)
(-0.000589917 -1.21707e-05 0)
(-0.000546598 -1.19546e-05 0)
(-0.000504055 -1.17152e-05 0)
(-0.000462381 -1.14524e-05 0)
(-0.000421668 -1.11638e-05 0)
(-0.000382008 -1.08496e-05 0)
(-0.000343496 -1.05127e-05 0)
(-0.000306228 -1.01542e-05 0)
(-0.000270302 -9.77048e-06 0)
(-0.000235812 -9.35591e-06 0)
(-0.000202855 -8.90682e-06 0)
(-0.000171533 -8.42584e-06 0)
(-0.000141948 -7.91754e-06 0)
(-0.000114202 -7.378e-06 0)
(-8.83993e-05 -6.80211e-06 0)
(-6.46351e-05 -6.19074e-06 0)
(-4.30057e-05 -5.54318e-06 0)
(-2.36051e-05 -4.86391e-06 0)
(-6.50986e-06 -4.15952e-06 0)
(8.20796e-06 -3.42714e-06 0)
(2.04864e-05 -2.67345e-06 0)
(3.02894e-05 -1.90665e-06 0)
(3.75878e-05 -1.12571e-06 0)
(4.2381e-05 -3.44157e-07 0)
(4.47107e-05 4.25767e-07 0)
(4.46447e-05 1.17109e-06 0)
(4.23197e-05 1.86262e-06 0)
(3.79479e-05 2.4745e-06 0)
(3.18305e-05 2.96439e-06 0)
(2.44283e-05 3.2574e-06 0)
(1.63918e-05 3.25402e-06 0)
(8.65556e-06 2.81013e-06 0)
(2.64514e-06 1.73837e-06 0)
(1.38188e-07 1.98614e-07 0)
(1.16829e-06 -2.12282e-06 0)
(7.31781e-06 -8.05942e-06 0)
(1.94373e-05 -1.31681e-05 0)
(3.50161e-05 -1.55179e-05 0)
(5.10573e-05 -1.55338e-05 0)
(6.53262e-05 -1.38299e-05 0)
(7.62807e-05 -1.09059e-05 0)
(8.25908e-05 -7.09531e-06 0)
(8.33036e-05 -2.63449e-06 0)
(7.78473e-05 2.22545e-06 0)
(6.57022e-05 7.43183e-06 0)
(4.66063e-05 1.27691e-05 0)
(2.03617e-05 1.82287e-05 0)
(-1.30795e-05 2.37027e-05 0)
(-5.36487e-05 2.91067e-05 0)
(-0.000101308 3.43641e-05 0)
(-0.000155846 3.94718e-05 0)
(-0.000217081 4.43499e-05 0)
(-0.000284746 4.90037e-05 0)
(-0.000358547 5.34009e-05 0)
(-0.00043821 5.74926e-05 0)
(-0.0005234 6.1333e-05 0)
(-0.000613754 6.48451e-05 0)
(-0.00070899 6.80946e-05 0)
(-0.00080874 7.10287e-05 0)
(-0.000912661 7.3758e-05 0)
(-0.00102045 7.61625e-05 0)
(-0.00113177 7.83897e-05 0)
(-0.00124631 8.03553e-05 0)
(-0.00136381 8.21409e-05 0)
(-0.00148394 8.37236e-05 0)
(-0.00160642 8.51313e-05 0)
(-0.00173104 8.6363e-05 0)
(-0.0018575 8.74314e-05 0)
(-0.00198553 8.83556e-05 0)
(-0.00211494 8.9134e-05 0)
(-0.00224546 8.97745e-05 0)
(-0.00237685 9.02814e-05 0)
(-0.00250889 9.06519e-05 0)
(-0.00264134 9.08656e-05 0)
(-0.00277396 9.09165e-05 0)
(-0.00290652 9.08072e-05 0)
(-0.00303878 9.05241e-05 0)
(-0.0031705 9.00618e-05 0)
(-0.00330144 8.94162e-05 0)
(-0.00343135 8.85946e-05 0)
(-0.00355998 8.759e-05 0)
(-0.00368712 8.64049e-05 0)
(-0.00381253 8.50616e-05 0)
(-0.003936 8.35684e-05 0)
(-0.00405735 8.19424e-05 0)
(-0.00417637 8.01878e-05 0)
(-0.00429289 7.83191e-05 0)
(-0.00440675 7.6357e-05 0)
(-0.00451779 7.43055e-05 0)
(-0.00462588 7.21781e-05 0)
(-0.00473087 6.99833e-05 0)
(-0.00483265 6.77345e-05 0)
(-0.00493109 6.54301e-05 0)
(-0.00502608 6.3056e-05 0)
(-0.0051175 6.06209e-05 0)
(-0.00520524 5.81181e-05 0)
(-0.00528919 5.55448e-05 0)
(-0.00536926 5.29129e-05 0)
(-0.00544533 5.02075e-05 0)
(-0.00551729 4.74299e-05 0)
(-0.00558505 4.45953e-05 0)
(-0.00564853 4.16948e-05 0)
(-0.00570763 3.87358e-05 0)
(-0.00576227 3.5734e-05 0)
(-0.00581238 3.26798e-05 0)
(-0.00585787 2.95714e-05 0)
(-0.00589869 2.64187e-05 0)
(-0.00593479 2.3219e-05 0)
(-0.00596609 1.99783e-05 0)
(-0.00599255 1.67122e-05 0)
(-0.00601412 1.34184e-05 0)
(-0.00603075 1.00876e-05 0)
(-0.00604241 6.72416e-06 0)
(-0.00604909 3.33278e-06 0)
(-0.00605072 -9.07651e-08 0)
(-0.00604728 -3.54715e-06 0)
(-0.00603878 -7.03029e-06 0)
(-0.00602518 -1.05373e-05 0)
(-0.00600646 -1.40666e-05 0)
(-0.00598262 -1.76097e-05 0)
(-0.00595369 -2.1157e-05 0)
(-0.00591964 -2.47079e-05 0)
(-0.00588052 -2.82612e-05 0)
(-0.00583635 -3.18044e-05 0)
(-0.00578718 -3.53245e-05 0)
(-0.00573302 -3.88169e-05 0)
(-0.00567397 -4.22709e-05 0)
(-0.00561011 -4.56644e-05 0)
(-0.0055415 -4.89793e-05 0)
(-0.00546823 -5.22093e-05 0)
(-0.00539044 -5.53443e-05 0)
(-0.00530827 -5.83672e-05 0)
(-0.00522184 -6.12684e-05 0)
(-0.00513129 -6.40473e-05 0)
(-0.00503679 -6.67002e-05 0)
(-0.00493851 -6.92193e-05 0)
(-0.00483658 -7.16059e-05 0)
(-0.00473119 -7.38684e-05 0)
(-0.00462251 -7.60086e-05 0)
(-0.00451072 -7.80219e-05 0)
(-0.00439598 -7.99106e-05 0)
(-0.00427846 -8.16834e-05 0)
(-0.00415837 -8.33423e-05 0)
(-0.0040359 -8.48805e-05 0)
(-0.0039112 -8.62913e-05 0)
(-0.00378449 -8.7572e-05 0)
(-0.00365598 -8.87161e-05 0)
(-0.00352587 -8.9712e-05 0)
(-0.0033944 -9.05497e-05 0)
(-0.00326177 -9.12226e-05 0)
(-0.00312825 -9.17238e-05 0)
(-0.00299408 -9.20457e-05 0)
(-0.0028595 -9.21869e-05 0)
(-0.00272475 -9.21532e-05 0)
(-0.00259011 -9.19489e-05 0)
(-0.00245583 -9.15717e-05 0)
(-0.00232218 -9.10176e-05 0)
(-0.0021894 -9.02866e-05 0)
(-0.00205776 -8.93788e-05 0)
(-0.00192754 -8.82916e-05 0)
(-0.00179901 -8.70219e-05 0)
(-0.00167244 -8.5569e-05 0)
(-0.00154809 -8.39337e-05 0)
(-0.00142624 -8.21141e-05 0)
(-0.00130719 -8.01055e-05 0)
(-0.00119122 -7.79063e-05 0)
(-0.00107858 -7.55188e-05 0)
(-0.000969561 -7.29446e-05 0)
(-0.000864446 -7.01794e-05 0)
(-0.000763513 -6.72171e-05 0)
(-0.000667032 -6.40556e-05 0)
(-0.000575275 -6.06958e-05 0)
(-0.000488523 -5.71403e-05 0)
(-0.000407053 -5.33895e-05 0)
(-0.000331126 -4.94417e-05 0)
(-0.00026098 -4.53033e-05 0)
(-0.000196843 -4.09878e-05 0)
(-0.000138932 -3.65084e-05 0)
(-8.74448e-05 -3.18869e-05 0)
(-4.25469e-05 -2.71471e-05 0)
(-4.35744e-06 -2.23106e-05 0)
(2.70597e-05 -1.74168e-05 0)
(5.16869e-05 -1.25078e-05 0)
(6.95736e-05 -7.63722e-06 0)
(8.08618e-05 -2.89257e-06 0)
(8.58046e-05 1.63373e-06 0)
(8.48141e-05 5.8182e-06 0)
(7.84928e-05 9.48792e-06 0)
(6.76738e-05 1.24195e-05 0)
(5.35053e-05 1.42889e-05 0)
(3.74935e-05 1.46737e-05 0)
(2.158e-05 1.30438e-05 0)
(8.48999e-06 8.87299e-06 0)
(1.46479e-06 2.60433e-06 0)
(1.52977e-06 -6.59178e-06 0)
(9.59232e-06 -1.93513e-05 0)
(2.43042e-05 -2.90245e-05 0)
(4.20166e-05 -3.29173e-05 0)
(5.9098e-05 -3.17532e-05 0)
(7.27773e-05 -2.66031e-05 0)
(8.0939e-05 -1.84952e-05 0)
(8.19593e-05 -8.21923e-06 0)
(7.45067e-05 3.64511e-06 0)
(5.76872e-05 1.66878e-05 0)
(3.09228e-05 3.04061e-05 0)
(-6.28043e-06 4.46478e-05 0)
(-5.41277e-05 5.90702e-05 0)
(-0.000112725 7.35737e-05 0)
(-0.000182048 8.79024e-05 0)
(-0.000261924 0.000101982 0)
(-0.000352218 0.00011564 0)
(-0.000452636 0.000128849 0)
(-0.000562834 0.000141504 0)
(-0.00068251 0.000153549 0)
(-0.000811206 0.000164969 0)
(-0.000948541 0.00017571 0)
(-0.00109408 0.000185761 0)
(-0.00124733 0.000195117 0)
(-0.00140784 0.000203808 0)
(-0.00157519 0.000211793 0)
(-0.00174886 0.000219162 0)
(-0.00192837 0.000225889 0)
(-0.00211332 0.000231996 0)
(-0.00230317 0.000237539 0)
(-0.00249752 0.000242517 0)
(-0.00269591 0.00024695 0)
(-0.00289786 0.000250864 0)
(-0.00310296 0.000254277 0)
(-0.00331081 0.000257184 0)
(-0.00352094 0.000259621 0)
(-0.00373295 0.000261595 0)
(-0.00394645 0.000263096 0)
(-0.00416102 0.000264146 0)
(-0.00437626 0.000264748 0)
(-0.00459178 0.000264877 0)
(-0.00480717 0.000264531 0)
(-0.00502206 0.0002637 0)
(-0.00523606 0.000262369 0)
(-0.00544882 0.000260539 0)
(-0.00565995 0.000258227 0)
(-0.00586911 0.000255446 0)
(-0.00607595 0.000252206 0)
(-0.00628012 0.000248534 0)
(-0.00648128 0.000244452 0)
(-0.00667914 0.000239977 0)
(-0.00687338 0.000235133 0)
(-0.00706371 0.000229944 0)
(-0.00724986 0.000224447 0)
(-0.00743155 0.00021866 0)
(-0.00760852 0.0002126 0)
(-0.00778054 0.000206293 0)
(-0.00794735 0.000199747 0)
(-0.00810874 0.000192976 0)
(-0.00826448 0.000185981 0)
(-0.00841437 0.000178755 0)
(-0.0085582 0.000171318 0)
(-0.00869578 0.000163663 0)
(-0.00882693 0.000155788 0)
(-0.00895149 0.000147718 0)
(-0.00906927 0.000139449 0)
(-0.00918009 0.000130983 0)
(-0.00928384 0.000122349 0)
(-0.00938036 0.000113545 0)
(-0.0094695 0.000104574 0)
(-0.00955116 9.54704e-05 0)
(-0.00962521 8.62283e-05 0)
(-0.00969154 7.68417e-05 0)
(-0.00975007 6.73419e-05 0)
(-0.00980071 5.77402e-05 0)
(-0.00984334 4.80325e-05 0)
(-0.00987794 3.82421e-05 0)
(-0.00990443 2.83806e-05 0)
(-0.00992274 1.84359e-05 0)
(-0.00993284 8.42092e-06 0)
(-0.00993471 -1.6431e-06 0)
(-0.0099283 -1.17624e-05 0)
(-0.0099136 -2.1936e-05 0)
(-0.00989063 -3.21374e-05 0)
(-0.00985939 -4.23508e-05 0)
(-0.00981986 -5.25729e-05 0)
(-0.00977211 -6.27843e-05 0)
(-0.00971617 -7.29616e-05 0)
(-0.00965209 -8.30954e-05 0)
(-0.00957993 -9.31727e-05 0)
(-0.00949977 -0.000103166 0)
(-0.00941173 -0.000113049 0)
(-0.00931588 -0.000122803 0)
(-0.00921237 -0.000132394 0)
(-0.00910132 -0.000141788 0)
(-0.00898289 -0.000150959 0)
(-0.00885724 -0.000159887 0)
(-0.00872455 -0.000168546 0)
(-0.00858502 -0.000176914 0)
(-0.00843887 -0.000184976 0)
(-0.00828629 -0.000192718 0)
(-0.00812753 -0.000200127 0)
(-0.00796282 -0.000207198 0)
(-0.00779243 -0.00021393 0)
(-0.00761661 -0.000220318 0)
(-0.00743563 -0.000226354 0)
(-0.00724977 -0.000232035 0)
(-0.00705933 -0.000237361 0)
(-0.00686461 -0.000242328 0)
(-0.00666592 -0.000246922 0)
(-0.00646357 -0.00025113 0)
(-0.0062579 -0.00025494 0)
(-0.00604924 -0.000258335 0)
(-0.00583795 -0.000261293 0)
(-0.00562439 -0.000263798 0)
(-0.00540892 -0.000265835 0)
(-0.00519194 -0.000267386 0)
(-0.00497383 -0.000268436 0)
(-0.00475498 -0.000268977 0)
(-0.0045358 -0.000269011 0)
(-0.00431671 -0.000268538 0)
(-0.00409812 -0.000267552 0)
(-0.00388046 -0.000266044 0)
(-0.00366416 -0.000264012 0)
(-0.00344966 -0.000261449 0)
(-0.00323741 -0.000258349 0)
(-0.00302785 -0.000254705 0)
(-0.00282142 -0.000250515 0)
(-0.00261856 -0.000245779 0)
(-0.00241975 -0.000240494 0)
(-0.00222544 -0.000234654 0)
(-0.00203608 -0.000228254 0)
(-0.00185212 -0.000221298 0)
(-0.00167402 -0.000213787 0)
(-0.00150222 -0.000205721 0)
(-0.00133717 -0.000197097 0)
(-0.00117929 -0.000187917 0)
(-0.00102904 -0.000178187 0)
(-0.000886823 -0.000167916 0)
(-0.000753059 -0.000157115 0)
(-0.00062813 -0.000145798 0)
(-0.000512389 -0.000133992 0)
(-0.000406171 -0.000121731 0)
(-0.000309789 -0.000109059 0)
(-0.000223512 -9.60361e-05 0)
(-0.000147555 -8.27275e-05 0)
(-8.20638e-05 -6.92146e-05 0)
(-2.71028e-05 -5.56014e-05 0)
(1.73381e-05 -4.20109e-05 0)
(5.13807e-05 -2.86093e-05 0)
(7.52871e-05 -1.56085e-05 0)
(8.94859e-05 -3.26783e-06 0)
(9.46293e-05 8.08114e-06 0)
(9.16257e-05 1.80123e-05 0)
(8.1692e-05 2.59703e-05 0)
(6.64427e-05 3.12399e-05 0)
(4.7905e-05 3.29363e-05 0)
(2.8575e-05 3.00302e-05 0)
(1.19063e-05 2.16279e-05 0)
(2.28748e-06 8.11719e-06 0)
(1.44814e-06 -1.19416e-05 0)
(9.73239e-06 -3.18573e-05 0)
(2.43248e-05 -4.58185e-05 0)
(4.08968e-05 -5.02703e-05 0)
(5.53669e-05 -4.63057e-05 0)
(6.46056e-05 -3.57949e-05 0)
(6.6216e-05 -2.01511e-05 0)
(5.82611e-05 -7.38088e-07 0)
(3.92696e-05 2.14915e-05 0)
(8.09163e-06 4.57176e-05 0)
(-3.60387e-05 7.13284e-05 0)
(-9.35944e-05 9.77397e-05 0)
(-0.000164949 0.000124609 0)
(-0.000250207 0.000151503 0)
(-0.00034935 0.000178236 0)
(-0.000462294 0.000204495 0)
(-0.000588758 0.000230123 0)
(-0.000728435 0.000254955 0)
(-0.000881003 0.000278848 0)
(-0.00104597 0.000301725 0)
(-0.00122293 0.000323537 0)
(-0.00141135 0.000344151 0)
(-0.00161066 0.00036364 0)
(-0.00182033 0.00038186 0)
(-0.0020398 0.000398903 0)
(-0.00226846 0.000414703 0)
(-0.00250569 0.000429362 0)
(-0.00275095 0.000442783 0)
(-0.00300355 0.000455108 0)
(-0.00326293 0.000466287 0)
(-0.00352847 0.000476363 0)
(-0.00379954 0.00048538 0)
(-0.00407559 0.000493354 0)
(-0.00435598 0.000500296 0)
(-0.00464013 0.000506241 0)
(-0.00492746 0.000511209 0)
(-0.00521739 0.000515194 0)
(-0.00550934 0.000518222 0)
(-0.00580275 0.000520308 0)
(-0.00609708 0.000521451 0)
(-0.0063918 0.000521663 0)
(-0.00668634 0.000520951 0)
(-0.00698021 0.000519301 0)
(-0.00727287 0.000516704 0)
(-0.00756384 0.000513181 0)
(-0.00785261 0.000508745 0)
(-0.00813874 0.000503418 0)
(-0.00842175 0.000497235 0)
(-0.00870117 0.000490231 0)
(-0.00897658 0.000482437 0)
(-0.00924754 0.000473875 0)
(-0.00951364 0.00046459 0)
(-0.00977447 0.000454622 0)
(-0.0100296 0.000444007 0)
(-0.0102788 0.000432784 0)
(-0.0105215 0.000420981 0)
(-0.0107575 0.000408635 0)
(-0.0109864 0.000395764 0)
(-0.0112079 0.000382384 0)
(-0.0114216 0.000368525 0)
(-0.0116274 0.000354192 0)
(-0.0118247 0.000339396 0)
(-0.0120136 0.000324162 0)
(-0.0121935 0.000308489 0)
(-0.0123644 0.000292398 0)
(-0.0125259 0.000275928 0)
(-0.0126779 0.000259078 0)
(-0.0128201 0.000241864 0)
(-0.0129524 0.000224329 0)
(-0.0130745 0.000206478 0)
(-0.0131863 0.000188327 0)
(-0.0132877 0.000169915 0)
(-0.0133784 0.000151251 0)
(-0.0134583 0.000132347 0)
(-0.0135274 0.000113245 0)
(-0.0135856 9.39626e-05 0)
(-0.0136326 7.45037e-05 0)
(-0.0136685 5.48987e-05 0)
(-0.0136932 3.51759e-05 0)
(-0.0137066 1.53399e-05 0)
(-0.0137086 -4.59092e-06 0)
(-0.0136994 -2.45862e-05 0)
(-0.0136788 -4.46295e-05 0)
(-0.0136469 -6.47025e-05 0)
(-0.0136037 -8.47712e-05 0)
(-0.0135492 -0.000104805 0)
(-0.0134835 -0.000124781 0)
(-0.0134066 -0.000144669 0)
(-0.0133187 -0.000164432 0)
(-0.0132198 -0.00018404 0)
(-0.01311 -0.000203459 0)
(-0.0129896 -0.000222651 0)
(-0.0128585 -0.000241568 0)
(-0.0127171 -0.000260168 0)
(-0.0125655 -0.000278406 0)
(-0.0124038 -0.000296237 0)
(-0.0122324 -0.00031362 0)
(-0.0120514 -0.000330521 0)
(-0.0118611 -0.000346904 0)
(-0.0116617 -0.000362732 0)
(-0.0114536 -0.000377979 0)
(-0.0112371 -0.000392622 0)
(-0.0110124 -0.000406641 0)
(-0.0107799 -0.000420018 0)
(-0.01054 -0.000432734 0)
(-0.0102929 -0.000444772 0)
(-0.0100392 -0.000456118 0)
(-0.00977914 -0.000466754 0)
(-0.0095132 -0.000476663 0)
(-0.0092418 -0.000485823 0)
(-0.00896536 -0.00049421 0)
(-0.00868434 -0.000501794 0)
(-0.00839921 -0.000508548 0)
(-0.00811046 -0.000514443 0)
(-0.00781857 -0.00051945 0)
(-0.00752404 -0.00052354 0)
(-0.0072274 -0.000526687 0)
(-0.00692917 -0.000528868 0)
(-0.0066299 -0.000530068 0)
(-0.00633012 -0.000530271 0)
(-0.00603041 -0.000529467 0)
(-0.00573133 -0.000527644 0)
(-0.00543348 -0.000524792 0)
(-0.00513743 -0.000520898 0)
(-0.00484378 -0.000515948 0)
(-0.00455314 -0.000509932 0)
(-0.00426611 -0.000502841 0)
(-0.00398331 -0.000494669 0)
(-0.00370534 -0.00048541 0)
(-0.00343283 -0.00047506 0)
(-0.00316638 -0.000463614 0)
(-0.00290663 -0.000451072 0)
(-0.00265418 -0.000437436 0)
(-0.00240964 -0.000422709 0)
(-0.0021736 -0.000406894 0)
(-0.00194667 -0.000390001 0)
(-0.00172942 -0.000372046 0)
(-0.00152243 -0.000353046 0)
(-0.00132624 -0.000333023 0)
(-0.00114138 -0.000312008 0)
(-0.000968344 -0.000290042 0)
(-0.000807588 -0.000267185 0)
(-0.000659531 -0.00024351 0)
(-0.000524559 -0.000219105 0)
(-0.000402994 -0.000194083 0)
(-0.000295083 -0.000168577 0)
(-0.000200989 -0.000142746 0)
(-0.00012076 -0.000116795 0)
(-5.43484e-05 -9.09689e-05 0)
(-1.56637e-06 -6.55753e-05 0)
(3.79596e-05 -4.10028e-05 0)
(6.48111e-05 -1.77246e-05 0)
(7.98275e-05 3.66765e-06 0)
(8.41424e-05 2.2425e-05 0)
(7.92354e-05 3.7615e-05 0)
(6.7014e-05 4.80847e-05 0)
(4.9822e-05 5.2443e-05 0)
(3.05186e-05 4.90958e-05 0)
(1.30489e-05 3.66147e-05 0)
(2.58519e-06 1.49937e-05 0)
(1.06608e-06 -1.67922e-05 0)
(8.31566e-06 -4.32555e-05 0)
(2.05661e-05 -6.04841e-05 0)
(3.34506e-05 -6.4039e-05 0)
(4.24283e-05 -5.55898e-05 0)
(4.42413e-05 -3.76063e-05 0)
(3.62852e-05 -1.22778e-05 0)
(1.6449e-05 1.87024e-05 0)
(-1.68819e-05 5.38245e-05 0)
(-6.49439e-05 9.1984e-05 0)
(-0.000128619 0.000132201 0)
(-0.000208546 0.000173715 0)
(-0.000305084 0.000215887 0)
(-0.0004184 0.000258239 0)
(-0.000548492 0.000300266 0)
(-0.000695243 0.000341697 0)
(-0.000858404 0.000382201 0)
(-0.00103766 0.000421531 0)
(-0.00123254 0.000459526 0)
(-0.00144257 0.000496009 0)
(-0.00166724 0.000530846 0)
(-0.00190592 0.000564024 0)
(-0.00215804 0.00059537 0)
(-0.00242289 0.000624918 0)
(-0.00269979 0.0006526 0)
(-0.00298806 0.000678425 0)
(-0.00328699 0.00070238 0)
(-0.00359581 0.000724497 0)
(-0.0039138 0.000744794 0)
(-0.00424023 0.000763259 0)
(-0.00457432 0.00077998 0)
(-0.00491534 0.000794925 0)
(-0.00526254 0.000808145 0)
(-0.00561518 0.000819686 0)
(-0.00597253 0.000829558 0)
(-0.00633385 0.000837791 0)
(-0.00669842 0.000844411 0)
(-0.00706552 0.000849438 0)
(-0.00743445 0.000852878 0)
(-0.00780451 0.000854747 0)
(-0.00817503 0.000855073 0)
(-0.00854533 0.00085387 0)
(-0.00891478 0.00085115 0)
(-0.00928274 0.000846929 0)
(-0.00964856 0.000841233 0)
(-0.0100117 0.000834077 0)
(-0.0103714 0.000825497 0)
(-0.0107273 0.000815544 0)
(-0.0110787 0.000804262 0)
(-0.0114251 0.000791694 0)
(-0.011766 0.000777889 0)
(-0.0121007 0.000762899 0)
(-0.0124289 0.000746777 0)
(-0.01275 0.000729564 0)
(-0.0130636 0.000711318 0)
(-0.0133691 0.00069209 0)
(-0.0136661 0.000671917 0)
(-0.0139543 0.000650844 0)
(-0.0142331 0.000628892 0)
(-0.0145022 0.000606101 0)
(-0.0147612 0.000582514 0)
(-0.0150097 0.000558143 0)
(-0.0152474 0.000533018 0)
(-0.015474 0.000507184 0)
(-0.0156891 0.000480655 0)
(-0.0158924 0.000453467 0)
(-0.0160837 0.000425669 0)
(-0.0162627 0.00039728 0)
(-0.0164291 0.000368338 0)
(-0.0165827 0.000338892 0)
(-0.0167233 0.000308963 0)
(-0.0168507 0.000278579 0)
(-0.0169647 0.000247794 0)
(-0.0170652 0.000216643 0)
(-0.017152 0.000185152 0)
(-0.0172249 0.000153365 0)
(-0.0172839 0.00012132 0)
(-0.0173288 8.90432e-05 0)
(-0.0173596 5.65717e-05 0)
(-0.0173762 2.39495e-05 0)
(-0.0173785 -8.79347e-06 0)
(-0.0173666 -4.16266e-05 0)
(-0.0173405 -7.45025e-05 0)
(-0.0173001 -0.000107376 0)
(-0.0172455 -0.000140212 0)
(-0.0171767 -0.000172967 0)
(-0.0170938 -0.000205587 0)
(-0.016997 -0.000238025 0)
(-0.0168863 -0.000270237 0)
(-0.0167618 -0.000302168 0)
(-0.0166237 -0.000333757 0)
(-0.0164723 -0.000364955 0)
(-0.0163075 -0.000395704 0)
(-0.0161298 -0.000425934 0)
(-0.0159393 -0.00045558 0)
(-0.0157362 -0.000484588 0)
(-0.0155209 -0.000512902 0)
(-0.0152936 -0.000540458 0)
(-0.0150546 -0.0005672 0)
(-0.0148043 -0.000593083 0)
(-0.014543 -0.000618062 0)
(-0.0142711 -0.000642088 0)
(-0.013989 -0.000665123 0)
(-0.0136971 -0.000687133 0)
(-0.0133958 -0.000708082 0)
(-0.0130856 -0.000727931 0)
(-0.012767 -0.000746648 0)
(-0.0124404 -0.000764201 0)
(-0.0121064 -0.000780554 0)
(-0.0117655 -0.000795665 0)
(-0.0114182 -0.000809495 0)
(-0.0110652 -0.000822005 0)
(-0.010707 -0.000833152 0)
(-0.0103442 -0.000842888 0)
(-0.00997749 -0.000851168 0)
(-0.00960742 -0.000857956 0)
(-0.00923465 -0.000863214 0)
(-0.00885986 -0.000866905 0)
(-0.00848372 -0.000868996 0)
(-0.0081069 -0.000869464 0)
(-0.00773012 -0.000868287 0)
(-0.0073541 -0.000865442 0)
(-0.00697956 -0.000860901 0)
(-0.00660722 -0.000854646 0)
(-0.00623784 -0.000846661 0)
(-0.00587218 -0.000836933 0)
(-0.00551098 -0.000825444 0)
(-0.005155 -0.00081218 0)
(-0.00480501 -0.000797133 0)
(-0.00446177 -0.000780299 0)
(-0.00412605 -0.00076168 0)
(-0.00379862 -0.000741276 0)
(-0.00348022 -0.000719088 0)
(-0.00317161 -0.00069513 0)
(-0.00287352 -0.000669416 0)
(-0.00258669 -0.000641969 0)
(-0.00231183 -0.000612819 0)
(-0.00204961 -0.000582003 0)
(-0.0018007 -0.000549569 0)
(-0.00156574 -0.000515579 0)
(-0.00134532 -0.000480112 0)
(-0.00113996 -0.000443267 0)
(-0.000950178 -0.000405171 0)
(-0.000776404 -0.000365972 0)
(-0.000619005 -0.000325854 0)
(-0.000478252 -0.000285035 0)
(-0.000354312 -0.000243776 0)
(-0.000247226 -0.000202403 0)
(-0.000156905 -0.000161314 0)
(-8.31017e-05 -0.000120986 0)
(-2.53527e-05 -8.20105e-05 0)
(1.70413e-05 -4.51058e-05 0)
(4.50506e-05 -1.11573e-05 0)
(5.9964e-05 1.87421e-05 0)
(6.34372e-05 4.32648e-05 0)
(5.75572e-05 6.08103e-05 0)
(4.48508e-05 6.94684e-05 0)
(2.84064e-05 6.70312e-05 0)
(1.24549e-05 5.13887e-05 0)
(2.51306e-06 2.19791e-05 0)
(5.1354e-07 -2.05382e-05 0)
(5.81923e-06 -5.20901e-05 0)
(1.40302e-05 -7.10587e-05 0)
(2.09355e-05 -7.19615e-05 0)
(2.21003e-05 -5.70612e-05 0)
(1.39476e-05 -2.96093e-05 0)
(-6.14369e-06 7.66914e-06 0)
(-4.03591e-05 5.24771e-05 0)
(-9.04016e-05 0.000102946 0)
(-0.000157589 0.000157545 0)
(-0.000242919 0.000214984 0)
(-0.000346985 0.000274269 0)
(-0.000470236 0.000334485 0)
(-0.000612917 0.000394963 0)
(-0.000775 0.000455109 0)
(-0.00095636 0.000514432 0)
(-0.00115677 0.000572512 0)
(-0.0013758 0.000629069 0)
(-0.00161303 0.000683769 0)
(-0.00186792 0.000736427 0)
(-0.00213981 0.000786851 0)
(-0.00242812 0.000834924 0)
(-0.00273209 0.000880508 0)
(-0.00305094 0.000923587 0)
(-0.00338397 0.000964019 0)
(-0.00373032 0.00100186 0)
(-0.00408916 0.00103703 0)
(-0.00445966 0.00106958 0)
(-0.00484097 0.00109947 0)
(-0.00523219 0.00112676 0)
(-0.00563245 0.00115145 0)
(-0.00604091 0.00117358 0)
(-0.00645666 0.00119318 0)
(-0.00687882 0.00121026 0)
(-0.00730654 0.00122487 0)
(-0.00773894 0.00123705 0)
(-0.00817518 0.00124683 0)
(-0.00861441 0.00125424 0)
(-0.00905579 0.0012593 0)
(-0.00949851 0.00126206 0)
(-0.00994173 0.00126252 0)
(-0.0103847 0.00126072 0)
(-0.0108266 0.0012567 0)
(-0.0112667 0.00125048 0)
(-0.0117043 0.00124212 0)
(-0.0121386 0.00123164 0)
(-0.012569 0.0012191 0)
(-0.0129947 0.00120456 0)
(-0.013415 0.00118807 0)
(-0.0138294 0.0011697 0)
(-0.0142371 0.0011495 0)
(-0.0146376 0.00112756 0)
(-0.0150302 0.00110393 0)
(-0.0154144 0.00107868 0)
(-0.0157895 0.00105187 0)
(-0.0161551 0.00102358 0)
(-0.0165105 0.000993855 0)
(-0.0168553 0.000962753 0)
(-0.0171889 0.000930337 0)
(-0.0175109 0.000896643 0)
(-0.0178208 0.000861728 0)
(-0.0181182 0.000825648 0)
(-0.0184026 0.000788435 0)
(-0.0186737 0.000750147 0)
(-0.0189311 0.000710845 0)
(-0.0191744 0.00067056 0)
(-0.0194032 0.000629346 0)
(-0.0196173 0.000587272 0)
(-0.0198164 0.000544383 0)
(-0.0200001 0.000500726 0)
(-0.0201683 0.000456367 0)
(-0.0203207 0.000411352 0)
(-0.020457 0.000365729 0)
(-0.0205771 0.000319567 0)
(-0.0206807 0.000272923 0)
(-0.0207678 0.000225838 0)
(-0.0208382 0.000178374 0)
(-0.0208918 0.000130595 0)
(-0.0209284 8.25469e-05 0)
(-0.0209481 3.4281e-05 0)
(-0.0209508 -1.4135e-05 0)
(-0.0209364 -6.26457e-05 0)
(-0.0209049 -0.000111199 0)
(-0.0208564 -0.000159726 0)
(-0.0207909 -0.000208154 0)
(-0.0207085 -0.000256429 0)
(-0.0206093 -0.000304486 0)
(-0.0204933 -0.000352244 0)
(-0.0203608 -0.000399631 0)
(-0.0202119 -0.000446582 0)
(-0.0200467 -0.000493021 0)
(-0.0198655 -0.000538862 0)
(-0.0196685 -0.000584023 0)
(-0.019456 -0.000628423 0)
(-0.0192282 -0.000671983 0)
(-0.0189855 -0.000714616 0)
(-0.0187281 -0.000756243 0)
(-0.0184564 -0.000796786 0)
(-0.0181708 -0.000836167 0)
(-0.0178717 -0.000874313 0)
(-0.0175594 -0.000911155 0)
(-0.0172345 -0.000946629 0)
(-0.0168974 -0.000980671 0)
(-0.0165486 -0.00101322 0)
(-0.0161885 -0.00104422 0)
(-0.0158178 -0.00107361 0)
(-0.0154371 -0.00110134 0)
(-0.0150468 -0.00112734 0)
(-0.0146477 -0.00115157 0)
(-0.0142403 -0.00117397 0)
(-0.0138253 -0.00119446 0)
(-0.0134034 -0.001213 0)
(-0.0129752 -0.00122953 0)
(-0.0125416 -0.00124397 0)
(-0.0121033 -0.00125628 0)
(-0.0116609 -0.00126639 0)
(-0.0112152 -0.00127425 0)
(-0.0107671 -0.00127982 0)
(-0.0103174 -0.00128303 0)
(-0.00986681 -0.00128387 0)
(-0.00941623 -0.00128228 0)
(-0.00896648 -0.00127823 0)
(-0.00851844 -0.00127169 0)
(-0.00807298 -0.00126262 0)
(-0.00763097 -0.00125101 0)
(-0.00719332 -0.00123683 0)
(-0.0067609 -0.00122005 0)
(-0.00633462 -0.00120066 0)
(-0.00591537 -0.00117866 0)
(-0.00550407 -0.00115404 0)
(-0.00510161 -0.0011268 0)
(-0.0047089 -0.00109693 0)
(-0.0043268 -0.00106447 0)
(-0.00395621 -0.00102943 0)
(-0.00359798 -0.000991835 0)
(-0.00325296 -0.000951728 0)
(-0.00292198 -0.000909161 0)
(-0.00260583 -0.000864199 0)
(-0.00230527 -0.00081692 0)
(-0.00202102 -0.000767431 0)
(-0.00175375 -0.000715854 0)
(-0.0015041 -0.000662341 0)
(-0.0012726 -0.000607084 0)
(-0.00105975 -0.000550305 0)
(-0.000865954 -0.000492272 0)
(-0.000691494 -0.000433311 0)
(-0.000536549 -0.000373802 0)
(-0.000401151 -0.00031421 0)
(-0.00028518 -0.000255103 0)
(-0.000188338 -0.00019715 0)
(-0.0001101 -0.000141167 0)
(-4.96904e-05 -8.81374e-05 0)
(-6.05145e-06 -3.92534e-05 0)
(2.2203e-05 4.04483e-06 0)
(3.68346e-05 4.00292e-05 0)
(4.00262e-05 6.66396e-05 0)
(3.43921e-05 8.14372e-05 0)
(2.31384e-05 8.15791e-05 0)
(1.05855e-05 6.42243e-05 0)
(2.19678e-06 2.82779e-05 0)
(-6.83716e-08 -2.27872e-05 0)
(2.59899e-06 -5.70611e-05 0)
(5.44036e-06 -7.58132e-05 0)
(4.68734e-06 -7.19821e-05 0)
(-4.056e-06 -4.84965e-05 0)
(-2.42466e-05 -9.39319e-06 0)
(-5.86147e-05 4.20229e-05 0)
(-0.000109374 0.000102921 0)
(-0.000178211 0.000171085 0)
(-0.000266501 0.000244451 0)
(-0.000375193 0.000321587 0)
(-0.000505047 0.000401046 0)
(-0.000656497 0.000481827 0)
(-0.000829707 0.000562965 0)
(-0.00102474 0.000643717 0)
(-0.00124147 0.00072342 0)
(-0.00147958 0.000801615 0)
(-0.00173872 0.000877777 0)
(-0.00201836 0.000951602 0)
(-0.00231788 0.00102278 0)
(-0.00263666 0.00109105 0)
(-0.00297393 0.00115622 0)
(-0.00332893 0.00121819 0)
(-0.00370085 0.00127676 0)
(-0.00408876 0.00133191 0)
(-0.00449179 0.00138357 0)
(-0.00490902 0.00143167 0)
(-0.00533948 0.00147624 0)
(-0.00578221 0.00151724 0)
(-0.00623622 0.00155471 0)
(-0.00670053 0.00158862 0)
(-0.00717413 0.00161905 0)
(-0.00765605 0.001646 0)
(-0.00814528 0.00166951 0)
(-0.00864081 0.00168962 0)
(-0.00914168 0.00170637 0)
(-0.0096469 0.0017198 0)
(-0.0101555 0.00172995 0)
(-0.0106665 0.00173687 0)
(-0.0111791 0.00174061 0)
(-0.0116922 0.0017412 0)
(-0.0122049 0.00173869 0)
(-0.0127164 0.00173313 0)
(-0.0132259 0.00172456 0)
(-0.0137323 0.00171305 0)
(-0.014235 0.00169867 0)
(-0.014733 0.00168147 0)
(-0.0152257 0.00166153 0)
(-0.0157122 0.00163893 0)
(-0.0161917 0.00161374 0)
(-0.0166636 0.00158605 0)
(-0.017127 0.00155594 0)
(-0.0175814 0.0015235 0)
(-0.018026 0.00148881 0)
(-0.0184601 0.00145195 0)
(-0.0188831 0.00141301 0)
(-0.0192945 0.00137207 0)
(-0.0196935 0.0013292 0)
(-0.0200796 0.00128447 0)
(-0.0204522 0.00123798 0)
(-0.0208109 0.00118977 0)
(-0.021155 0.00113992 0)
(-0.0214842 0.00108851 0)
(-0.0217979 0.00103559 0)
(-0.0220957 0.000981257 0)
(-0.0223772 0.000925574 0)
(-0.022642 0.000868607 0)
(-0.0228898 0.000810433 0)
(-0.0231201 0.000751139 0)
(-0.0233327 0.000690788 0)
(-0.0235272 0.000629455 0)
(-0.0237035 0.000567226 0)
(-0.0238611 0.000504173 0)
(-0.024 0.000440368 0)
(-0.0241198 0.000375899 0)
(-0.0242205 0.000310841 0)
(-0.0243018 0.000245265 0)
(-0.0243637 0.000179258 0)
(-0.024406 0.000112903 0)
(-0.0244286 4.62727e-05 0)
(-0.0244315 -2.05553e-05 0)
(-0.0244147 -8.74909e-05 0)
(-0.0243782 -0.000154445 0)