/*--------------------------------*- C++ -*----------------------------------*\
  =========                 |
  \\      /  F ield         | OpenFOAM: The Open Source CFD Toolbox
   \\    /   O peration     | Website:  https://openfoam.org
    \\  /    A nd           | Version:  7
     \\/     M anipulation  |
\*---------------------------------------------------------------------------*/
FoamFile
{
    version     2.0;
    format      ascii;
    class       volScalarField;
    location    "0.3375";
    object      p;
}
// * * * * * * * * * * * * * * * * * * * * * * * * * * * * * * * * * * * * * //

dimensions      [0 2 -2 0 0 0 0];

internalField   nonuniform List<scalar> 
25600
(
3.03143e-06
0.000116765
0.000145579
3.68588e-05
-0.000216778
-0.000611241
-0.0011358
-0.00177604
-0.00251636
-0.00334145
-0.00423679
-0.0051888
-0.00618489
-0.00721343
-0.00826377
-0.00932608
-0.0103913
-0.0114512
-0.0124981
-0.0135252
-0.0145262
-0.0154952
-0.016427
-0.0173168
-0.0181602
-0.0189533
-0.0196923
-0.0203742
-0.020996
-0.0215553
-0.0220496
-0.0224771
-0.022836
-0.0231247
-0.0233421
-0.0234869
-0.0235585
-0.0235561
-0.0234793
-0.0233277
-0.0231014
-0.0228002
-0.0224243
-0.0219742
-0.0214502
-0.0208529
-0.0201832
-0.0194417
-0.0186294
-0.0177474
-0.0167969
-0.015779
-0.0146951
-0.0135467
-0.0123352
-0.0110623
-0.00972963
-0.00833895
-0.0068921
-0.00539096
-0.0038375
-0.00223375
-0.000581787
0.00111624
0.00285815
0.00464167
0.00646451
0.0083243
0.0102186
0.0121451
0.0141011
0.0160843
0.0180919
0.0201215
0.0221704
0.024236
0.0263155
0.0284062
0.0305055
0.0326105
0.0347185
0.0368267
0.0389323
0.0410325
0.0431245
0.0452054
0.0472725
0.049323
0.051354
0.0533629
0.0553467
0.0573028
0.0592285
0.061121
0.0629777
0.0647959
0.066573
0.0683065
0.0699939
0.0716327
0.0732205
0.074755
0.0762339
0.0776551
0.0790164
0.0803158
0.0815513
0.0827211
0.0838234
0.0848567
0.0858193
0.0867099
0.0875271
0.0882698
0.0889369
0.0895277
0.0900412
0.090477
0.0908346
0.0911137
0.0913144
0.0914366
0.0914807
0.0914472
0.0913367
0.0911502
0.0908888
0.0905539
0.090147
0.0896702
0.0891254
0.0885151
0.0878421
0.0871093
0.0863201
0.0854781
0.0845874
0.0836523
0.0826778
0.0816689
0.0806314
0.0795715
0.0784958
0.0774116
0.0763266
0.0752495
0.0741893
0.0731559
0.07216
0.0712132
0.0703277
0.0695167
0.0687943
0.0681748
0.0676726
0.067301
0.0670691
0.0669788
0.0670191
0.0671344
-0.00010654
5.40111e-06
9.15555e-06
-0.000112135
-0.00035434
-0.000715947
-0.00119048
-0.00176747
-0.00243488
-0.00318033
-0.00399155
-0.00485673
-0.00576467
-0.00670489
-0.00766758
-0.00864357
-0.00962433
-0.0106021
-0.0115695
-0.0125201
-0.0134478
-0.0143469
-0.0152122
-0.0160391
-0.0168232
-0.0175607
-0.018248
-0.0188818
-0.0194594
-0.0199782
-0.0204358
-0.0208303
-0.0211599
-0.0214231
-0.0216184
-0.0217449
-0.0218016
-0.0217878
-0.021703
-0.0215468
-0.0213191
-0.0210198
-0.0206491
-0.0202071
-0.0196943
-0.0191112
-0.0184585
-0.0177369
-0.0169472
-0.0160905
-0.0151678
-0.0141803
-0.0131292
-0.012016
-0.010842
-0.00960878
-0.00831794
-0.00697115
-0.00557017
-0.0041168
-0.00261295
-0.00106055
0.000538389
0.00218182
0.00386761
0.00559359
0.00735754
0.00915717
0.0109902
0.0128542
0.0147468
0.0166655
0.0186079
0.0205715
0.0225538
0.024552
0.0265638
0.0285863
0.030617
0.0326533
0.0346924
0.0367316
0.0387683
0.0407996
0.042823
0.0448357
0.0468349
0.048818
0.0507822
0.052725
0.0546435
0.0565353
0.0583975
0.0602277
0.0620233
0.0637816
0.0655003
0.0671768
0.0688088
0.0703939
0.0719297
0.0734142
0.074845
0.0762202
0.0775377
0.0787955
0.0799918
0.0811249
0.0821931
0.0831948
0.0841287
0.0849933
0.0857874
0.08651
0.0871602
0.087737
0.0882399
0.0886684
0.089022
0.0893007
0.0895043
0.089633
0.0896873
0.0896675
0.0895745
0.0894092
0.0891728
0.0888667
0.0884924
0.088052
0.0875474
0.0869812
0.0863561
0.0856749
0.0849411
0.0841581
0.08333
0.0824611
0.0815561
0.08062
0.0796584
0.0786772
0.0776828
0.0766821
0.0756826
0.0746923
0.0737197
0.0727741
0.0718652
0.0710034
0.0701997
0.0694654
0.0688123
0.068252
0.0677955
0.0674521
0.0672271
0.0671206
0.0671345
0.0672499
-0.000135141
1.00863e-06
5.00423e-06
-0.000117268
-0.000349473
-0.000688668
-0.00112934
-0.0016627
-0.00227865
-0.00296667
-0.00371608
-0.00451646
-0.00535777
-0.00623046
-0.00712544
-0.00803415
-0.00894861
-0.00986143
-0.0107658
-0.0116553
-0.0125241
-0.0133668
-0.0141783
-0.0149542
-0.0156901
-0.0163822
-0.0170271
-0.0176215
-0.0181627
-0.0186481
-0.0190755
-0.0194427
-0.019748
-0.0199899
-0.020167
-0.0202781
-0.0203224
-0.0202991
-0.0202077
-0.0200476
-0.0198188
-0.0195211
-0.0191545
-0.0187193
-0.0182159
-0.0176447
-0.0170062
-0.0163012
-0.0155305
-0.014695
-0.0137957
-0.0128337
-0.0118103
-0.0107266
-0.00958417
-0.00838436
-0.00712874
-0.00581892
-0.00445658
-0.00304347
-0.00158142
-7.23128e-05
0.00148193
0.00307931
0.00471778
0.00639523
0.0081095
0.0098584
0.0116397
0.013451
0.01529
0.0171545
0.0190419
0.0209498
0.0228757
0.0248173
0.0267718
0.0287369
0.0307098
0.0326881
0.0346691
0.0366502
0.0386287
0.0406021
0.0425677
0.0445228
0.0464648
0.0483912
0.0502992
0.0521864
0.05405
0.0558876
0.0576965
0.0594743
0.0612185
0.0629266
0.0645961
0.0662248
0.0678103
0.0693503
0.0708426
0.0722851
0.0736757
0.0750123
0.076293
0.0775161
0.0786796
0.079782
0.0808216
0.081797
0.0827068
0.0835497
0.0843246
0.0850305
0.0856664
0.0862317
0.0867258
0.0871482
0.0874985
0.0877767
0.0879827
0.0881169
0.0881795
0.0881712
0.0880926
0.0879448
0.087729
0.0874466
0.0870992
0.0866886
0.0862171
0.0856871
0.0851011
0.0844621
0.0837733
0.0830384
0.0822611
0.0814457
0.0805967
0.0797191
0.0788182
0.0778997
0.0769698
0.0760351
0.0751026
0.0741798
0.073275
0.0723965
0.0715534
0.0707551
0.0700115
0.0693326
0.0687286
0.0682093
0.067784
0.0674606
0.0672433
0.0671341
0.0671483
0.0672904
-2.781e-05
0.000121698
0.000127503
5.37863e-06
-0.00022094
-0.000546387
-0.000965196
-0.00146911
-0.00204908
-0.00269568
-0.0033994
-0.00415089
-0.00494105
-0.00576108
-0.00660257
-0.00745755
-0.00831857
-0.00917865
-0.0100313
-0.0108704
-0.0116905
-0.0124862
-0.0132527
-0.0139856
-0.0146808
-0.0153345
-0.0159433
-0.0165042
-0.0170143
-0.0174712
-0.0178725
-0.0182163
-0.0185007
-0.0187243
-0.0188855
-0.0189834
-0.019017
-0.0189854
-0.0188881
-0.0187247
-0.0184949
-0.0181986
-0.0178357
-0.0174066
-0.0169113
-0.0163505
-0.0157246
-0.0150343
-0.0142802
-0.0134634
-0.0125847
-0.0116452
-0.010646
-0.00958846
-0.00847381
-0.00730347
-0.00607893
-0.00480175
-0.00347353
-0.00209599
-0.000670878
0.000799983
0.00231472
0.00387139
0.00546802
0.00710256
0.00877292
0.0104769
0.0122124
0.0139772
0.0157689
0.0175853
0.019424
0.0212827
0.0231589
0.0250503
0.0269543
0.0288685
0.0307904
0.0327174
0.0346471
0.0365768
0.038504
0.0404262
0.0423407
0.0442451
0.0461367
0.048013
0.0498715
0.0517096
0.0535248
0.0553146
0.0570766
0.0588083
0.0605072
0.062171
0.0637974
0.065384
0.0669286
0.068429
0.069883
0.0712886
0.0726438
0.0739466
0.0751952
0.0763878
0.0775226
0.078598
0.0796126
0.080565
0.0814537
0.0822776
0.0830357
0.0837269
0.0843505
0.0849057
0.0853921
0.085809
0.0861565
0.0864342
0.0866424
0.0867811
0.0868509
0.0868524
0.0867862
0.0866535
0.0864553
0.0861932
0.0858687
0.0854838
0.0850404
0.0845411
0.0839883
0.083385
0.0827344
0.0820399
0.0813053
0.0805347
0.0797325
0.0789035
0.0780528
0.0771858
0.0763086
0.0754274
0.0745488
0.07368
0.0728286
0.0720025
0.0712099
0.0704597
0.0697606
0.0691218
0.0685523
0.0680609
0.0676561
0.0673454
0.0671334
0.0670244
0.0670417
0.0672007
0.00022451
0.000363769
0.000360094
0.000232063
5.61108e-06
-0.000312886
-0.000717415
-0.00120011
-0.00175262
-0.00236645
-0.00303307
-0.00374402
-0.00449101
-0.00526596
-0.00606111
-0.00686907
-0.0076829
-0.00849605
-0.0093024
-0.0100962
-0.010872
-0.011625
-0.0123504
-0.0130439
-0.0137016
-0.0143198
-0.0148953
-0.015425
-0.0159062
-0.0163364
-0.0167135
-0.0170353
-0.0173002
-0.0175065
-0.0176529
-0.0177384
-0.0177618
-0.0177225
-0.0176198
-0.0174533
-0.0172226
-0.0169277
-0.0165684
-0.016145
-0.0156577
-0.0151069
-0.014493
-0.0138167
-0.0130787
-0.0122797
-0.0114208
-0.0105029
-0.00952709
-0.00849459
-0.00740666
-0.00626466
-0.00507
-0.00382419
-0.0025288
-0.00118546
0.000204115
0.00163817
0.00311489
0.00463239
0.00618876
0.007782
0.00941008
0.0110709
0.0127624
0.0144823
0.0162284
0.0179985
0.0197904
0.0216017
0.0234301
0.0252731
0.0271285
0.0289938
0.0308666
0.0327443
0.0346246
0.0365049
0.0383828
0.0402557
0.0421212
0.0439768
0.04582
0.0476482
0.0494591
0.0512501
0.0530188
0.0547628
0.0564798
0.0581672
0.0598227
0.0614441
0.063029
0.0645753
0.0660808
0.0675432
0.0689607
0.070331
0.0716524
0.0729228
0.0741406
0.075304
0.0764114
0.0774611
0.0784518
0.0793821
0.0802508
0.0810566
0.0817986
0.0824759
0.0830876
0.0836332
0.0841121
0.0845239
0.0848685
0.0851457
0.0853557
0.0854987
0.0855752
0.0855858
0.0855312
0.0854125
0.0852308
0.0849876
0.0846845
0.0843233
0.0839061
0.0834352
0.0829132
0.082343
0.0817275
0.0810702
0.0803747
0.0796451
0.0788855
0.0781005
0.0772951
0.0764745
0.0756444
0.0748107
0.0739797
0.0731581
0.072353
0.0715717
0.0708219
0.0701115
0.0694487
0.0688417
0.0682987
0.0678277
0.0674365
0.0671324
0.0669206
0.0668067
0.0668169
0.0669699
0.000618018
0.000725479
0.000699755
0.000557917
0.00032415
5.31767e-06
-0.000392466
-0.000861747
-0.00139484
-0.00198403
-0.00262161
-0.00329991
-0.00401134
-0.00474849
-0.00550423
-0.00627173
-0.00704456
-0.00781659
-0.00858205
-0.00933551
-0.0100719
-0.0107864
-0.0114746
-0.0121324
-0.012756
-0.0133418
-0.0138868
-0.0143879
-0.0148425
-0.0152482
-0.0156028
-0.0159043
-0.016151
-0.0163414
-0.0164741
-0.016548
-0.0165621
-0.0165156
-0.0164079
-0.0162385
-0.0160072
-0.0157136
-0.0153578
-0.01494
-0.0144603
-0.013919
-0.0133166
-0.0126538
-0.011931
-0.0111492
-0.0103091
-0.00941185
-0.00845837
-0.00744982
-0.00638743
-0.0052725
-0.00410641
-0.00289059
-0.00162658
-0.000315955
0.00103964
0.00243849
0.00387884
0.00535888
0.00687673
0.00843045
0.0100181
0.0116376
0.0132869
0.0149639
0.0166664
0.0183923
0.0201394
0.0219053
0.0236879
0.0254848
0.0272937
0.0291122
0.030938
0.0327686
0.0346017
0.0364348
0.0382655
0.0400914
0.0419101
0.0437191
0.0455159
0.0472983
0.0490637
0.0508098
0.0525342
0.0542346
0.0559085
0.0575537
0.0591679
0.0607489
0.0622944
0.0638023
0.0652705
0.0666968
0.0680794
0.0694162
0.0707054
0.0719451
0.0731337
0.0742694
0.0753506
0.076376
0.077344
0.0782534
0.0791029
0.0798915
0.0806183
0.0812822
0.0818827
0.0824191
0.0828909
0.0832978
0.0836395
0.0839162
0.0841278
0.0842747
0.0843573
0.0843762
0.0843323
0.0842265
0.08406
0.0838343
0.0835508
0.0832115
0.0828183
0.0823735
0.0818797
0.0813396
0.0807562
0.0801327
0.0794727
0.07878
0.0780587
0.0773132
0.0765483
0.0757688
0.0749802
0.0741881
0.0733984
0.0726174
0.0718516
0.0711079
0.0703934
0.0697152
0.069081
0.068498
0.0679739
0.0675159
0.0671313
0.066827
0.0666088
0.0664827
0.0664738
0.0665999
0.00114193
0.00120057
0.00114145
0.000977645
0.000729045
0.000402478
3.9991e-06
-0.000459459
-0.000980873
-0.00155324
-0.00216956
-0.00282281
-0.00350607
-0.00421256
-0.00493574
-0.00566934
-0.00640737
-0.00714413
-0.00787422
-0.00859251
-0.00929419
-0.00997476
-0.01063
-0.0112559
-0.011849
-0.0124057
-0.0129231
-0.0133983
-0.0138288
-0.0142122
-0.0145464
-0.0148294
-0.0150595
-0.0152353
-0.0153554
-0.0154187
-0.0154243
-0.0153713
-0.0152591
-0.0150872
-0.0148553
-0.0145632
-0.0142109
-0.0137983
-0.0133259
-0.0127937
-0.0122023
-0.0115521
-0.0108439
-0.0100783
-0.00925617
-0.00837843
-0.0074461
-0.00646026
-0.0054221
-0.00433284
-0.00319384
-0.00200647
-0.000772224
0.000507375
0.00183073
0.00319618
0.00460203
0.00604651
0.0075278
0.00904404
0.0105933
0.0121736
0.0137829
0.0154191
0.0170803
0.0187642
0.0204687
0.0221917
0.0239308
0.0256839
0.0274487
0.0292228
0.0310041
0.03279
0.0345784
0.0363667
0.0381528
0.0399341
0.0417084
0.0434733
0.0452263
0.0469652
0.0486876
0.0503912
0.0520737
0.0537327
0.055366
0.0569713
0.0585465
0.0600893
0.0615975
0.0630692
0.0645022
0.0658945
0.0672442
0.0685493
0.0698082
0.0710189
0.0721799
0.0732895
0.0743462
0.0753485
0.0762952
0.0771849
0.0780164
0.0787889
0.0795012
0.0801526
0.0807425
0.0812701
0.0817352
0.0821373
0.0824763
0.0827522
0.0829652
0.0831155
0.0832036
0.0832301
0.0831959
0.0831018
0.0829491
0.0827392
0.0824736
0.0821541
0.0817826
0.0813615
0.0808931
0.0803801
0.0798254
0.0792321
0.0786038
0.0779439
0.0772565
0.0765458
0.0758163
0.0750726
0.0743198
0.0735633
0.0728086
0.0720616
0.0713283
0.0706151
0.0699285
0.0692752
0.0686619
0.0680955
0.0675829
0.0671307
0.0667457
0.0664344
0.0662026
0.0660565
0.0660174
0.0660996
0.00178235
0.00177927
0.00167706
0.00148359
0.00121297
0.000871674
0.000465554
9.02674e-07
-0.000515924
-0.00107856
-0.00168063
-0.00231574
-0.00297757
-0.00365995
-0.00435689
-0.00506263
-0.00577164
-0.0064786
-0.00717846
-0.00786644
-0.00853801
-0.0091889
-0.00981509
-0.0104129
-0.0109787
-0.0115095
-0.0120022
-0.0124542
-0.012863
-0.0132262
-0.0135419
-0.0138081
-0.0140232
-0.0141858
-0.0142945
-0.0143482
-0.014346
-0.0142872
-0.014171
-0.0139969
-0.0137647
-0.0134742
-0.0131252
-0.0127178
-0.0122523
-0.0117288
-0.0111478
-0.0105098
-0.00981529
-0.00906508
-0.00825993
-0.00740073
-0.00648845
-0.00552414
-0.00450892
-0.003444
-0.00233066
-0.00117027
3.57689e-05
0.00128596
0.00257875
0.00391254
0.00528568
0.00669645
0.00814308
0.00962376
0.0111366
0.0126797
0.0142511
0.0158488
0.0174707
0.0191148
0.020779
0.0224612
0.0241592
0.0258707
0.0275937
0.0293258
0.0310649
0.0328085
0.0345545
0.0363005
0.0380442
0.0397834
0.0415157
0.0432388
0.0449504
0.0466482
0.04833
0.0499934
0.0516362
0.0532562
0.0548511
0.0564188
0.0579571
0.0594638
0.060937
0.0623744
0.0637742
0.0651344
0.0664531
0.0677285
0.0689588
0.0701422
0.0712773
0.0723623
0.0733959
0.0743766
0.0753031
0.0761742
0.0769889
0.0777461
0.0784449
0.0790845
0.0796642
0.0801836
0.0806422
0.0810397
0.081376
0.0816511
0.0818651
0.0820184
0.0821114
0.0821447
0.0821191
0.0820357
0.0818954
0.0816998
0.0814502
0.0811486
0.0807967
0.0803967
0.079951
0.0794623
0.0789332
0.0783668
0.0777663
0.0771354
0.0764777
0.0757973
0.0750984
0.0743854
0.0736631
0.0729366
0.0722111
0.071492
0.0707849
0.0700957
0.0694304
0.0687951
0.068196
0.0676393
0.0671313
0.0666783
0.0662862
0.0659613
0.065709
0.0655354
0.0654565
0.0654817
0.00252481
0.00245046
0.00229728
0.00206738
0.00176823
0.00140582
0.000985693
0.00051345
-5.20319e-06
-0.000564502
-0.00115865
-0.00178185
-0.00242839
-0.00309264
-0.00376914
-0.00445261
-0.00513792
-0.00582016
-0.00649462
-0.00715684
-0.00780257
-0.00842778
-0.00902869
-0.00960176
-0.0101437
-0.0106515
-0.0111224
-0.0115537
-0.011943
-0.0122882
-0.0125873
-0.0128384
-0.01304
-0.0131906
-0.013289
-0.0133341
-0.0133251
-0.013261
-0.0131413
-0.0129654
-0.0127331
-0.0124442
-0.0120985
-0.0116962
-0.0112373
-0.0107221
-0.0101511
-0.00952454
-0.00884314
-0.00810753
-0.00731848
-0.00647686
-0.00558357
-0.00463965
-0.00364617
-0.0026043
-0.00151528
-0.000380426
0.000798886
0.00202121
0.00328506
0.00458886
0.00593101
0.00730985
0.00872365
0.0101707
0.011649
0.0131569
0.0146924
0.0162535
0.0178382
0.0194447
0.0210707
0.0227143
0.0243733
0.0260455
0.0277289
0.0294213
0.0311204
0.032824
0.0345298
0.0362358
0.0379395
0.0396388
0.0413314
0.0430151
0.0446875
0.0463465
0.0479899
0.0496154
0.0512208
0.052804
0.0543627
0.0558949
0.0573984
0.0588712
0.0603112
0.0617164
0.063085
0.064415
0.0657045
0.0669518
0.0681552
0.069313
0.0704236
0.0714856
0.0724974
0.0734578
0.0743654
0.0752191
0.0760179
0.0767607
0.0774467
0.0780751
0.0786454
0.0791569
0.0796093
0.0800024
0.080336
0.0806101
0.0808249
0.0809807
0.081078
0.0811173
0.0810995
0.0810254
0.0808963
0.0807134
0.0804783
0.0801926
0.0798581
0.079477
0.0790515
0.0785842
0.0780777
0.0775349
0.076959
0.0763532
0.0757213
0.0750669
0.0743941
0.0737072
0.0730105
0.0723088
0.071607
0.0709101
0.0702234
0.0695522
0.0689021
0.0682787
0.0676875
0.0671344
0.066625
0.0661649
0.0657597
0.0654149
0.0651357
0.0649279
0.0648013
0.0647598
0.0033552
0.0032027
0.00299239
0.00272038
0.00238703
0.00199781
0.00155793
0.00107234
0.000546094
-1.56189e-05
-0.000607578
-0.00122456
-0.0018614
-0.00251301
-0.00317442
-0.00384075
-0.00450732
-0.00516956
-0.00582314
-0.00646388
-0.00708779
-0.00769111
-0.00827028
-0.00882198
-0.00934313
-0.00983086
-0.0102825
-0.0106955
-0.0110676
-0.0113968
-0.0116811
-0.0119188
-0.0121083
-0.0122483
-0.0123375
-0.012375
-0.0123598
-0.0122912
-0.0121684
-0.0119912
-0.0117591
-0.0114719
-0.0111295
-0.010732
-0.0102796
-0.00977235
-0.00921073
-0.00859514
-0.00792615
-0.00720439
-0.0064306
-0.00560561
-0.00473031
-0.00380568
-0.00283276
-0.0018127
-0.00074668
0.000364012
0.00151805
0.00271402
0.00395048
0.00522592
0.00653876
0.0078874
0.00927015
0.0106853
0.0121311
0.0136056
0.0151071
0.0166336
0.0181833
0.0197541
0.021344
0.0229511
0.0245732
0.0262084
0.0278544
0.0295091
0.0311705
0.0328363
0.0345043
0.0361725
0.0378384
0.0395001
0.0411553
0.0428017
0.0444372
0.0460596
0.0476668
0.0492566
0.0508267
0.0523752
0.0538999
0.0553986
0.0568694
0.0583102
0.0597191
0.0610941
0.0624333
0.0637349
0.064997
0.066218
0.0673962
0.0685299
0.0696176
0.0706579
0.0716493
0.0725905
0.0734804
0.0743178
0.0751016
0.0758309
0.0765049
0.0771228
0.077684
0.0781881
0.0786347
0.0790235
0.0793544
0.0796274
0.0798427
0.0800006
0.0801015
0.080146
0.080135
0.0800693
0.0799501
0.0797785
0.0795561
0.0792845
0.0789654
0.0786009
0.0781932
0.0777447
0.0772579
0.0767356
0.0761809
0.0755968
0.0749868
0.0743545
0.0737037
0.0730383
0.0723626
0.071681
0.0709978
0.070318
0.0696462
0.0689876
0.0683472
0.0677299
0.0671411
0.0665859
0.0660694
0.0655966
0.0651727
0.0648025
0.0644909
0.0642433
0.0640626
0.0639473
0.00426016
0.00402477
0.00375266
0.00343389
0.00306151
0.00264049
0.00217582
0.00167178
0.0011328
0.00056351
-3.14346e-05
-0.00064736
-0.00127962
-0.00192361
-0.00257481
-0.00322876
-0.00388116
-0.00452782
-0.00516471
-0.00578795
-0.00639382
-0.00697882
-0.00753961
-0.00807312
-0.00857641
-0.00904679
-0.0094817
-0.00987878
-0.0102359
-0.010551
-0.0108222
-0.0110481
-0.0112269
-0.0113576
-0.0114388
-0.0114695
-0.011449
-0.0113764
-0.0112512
-0.0110729
-0.0108412
-0.0105558
-0.0102168
-0.00982405
-0.00937777
-0.00887816
-0.00832555
-0.00772036
-0.00706314
-0.0063545
-0.00559516
-0.00478591
-0.00392761
-0.0030212
-0.00206771
-0.00106824
-2.39524e-05
0.00106392
0.00219408
0.00336517
0.00457578
0.00582443
0.00710961
0.00842973
0.00978317
0.0111682
0.0125832
0.0140263
0.0154957
0.0169896
0.0185061
0.0200433
0.0215992
0.0231718
0.0247592
0.0263593
0.0279701
0.0295894
0.0312152
0.0328453
0.0344777
0.0361102
0.0377406
0.0393669
0.0409867
0.0425981
0.0441989
0.0457869
0.0473601
0.0489162
0.0504533
0.0519692
0.0534618
0.0549292
0.0563693
0.0577801
0.0591598
0.0605064
0.061818
0.063093
0.0643294
0.0655257
0.0666803
0.0677914
0.0688577
0.0698776
0.07085
0.0717733
0.0726466
0.0734687
0.0742384
0.0749551
0.0756178
0.0762258
0.0767786
0.0772756
0.0777165
0.0781011
0.0784293
0.0787011
0.0789166
0.0790761
0.0791802
0.0792293
0.0792242
0.0791658
0.0790551
0.0788935
0.0786822
0.0784229
0.0781173
0.0777673
0.077375
0.0769428
0.076473
0.0759683
0.0754315
0.0748657
0.0742742
0.0736602
0.0730274
0.0723795
0.0717204
0.0710542
0.0703852
0.0697176
0.0690559
0.0684048
0.0677689
0.0671527
0.0665611
0.0659986
0.0654699
0.0649796
0.064532
0.0641315
0.0637827
0.0634905
0.0632511
0.063057
0.00522734
0.00490592
0.00456856
0.0041993
0.00378385
0.00332682
0.002833
0.00230605
0.0017498
0.00116831
0.00056572
-5.38204e-05
-0.000686142
-0.00132709
-0.00197255
-0.00261848
-0.00326094
-0.00389608
-0.00452018
-0.00512963
-0.00572101
-0.00629103
-0.00683664
-0.00735492
-0.00784317
-0.00829879
-0.00871941
-0.00910279
-0.00944687
-0.00974976
-0.0100097
-0.0102252
-0.0103948
-0.0105173
-0.0105915
-0.0106165
-0.0105914
-0.0105155
-0.0103883
-0.0102093
-0.0099782
-0.00969484
-0.00935911
-0.00897102
-0.00853071
-0.00803838
-0.00749435
-0.00689905
-0.00625299
-0.00555677
-0.00481109
-0.0040167
-0.00317445
-0.00228525
-0.00135008
-0.000370032
0.000653773
0.00172013
0.00282779
0.00397543
0.00516167
0.00638508
0.00764419
0.00893744
0.0102633
0.01162
0.013006
0.0144194
0.0158587
0.0173218
0.0188071
0.0203126
0.0218364
0.0233767
0.0249313
0.0264985
0.028076
0.029662
0.0312543
0.032851
0.0344498
0.0360488
0.0376458
0.0392387
0.0408255
0.042404
0.0439721
0.0455279
0.0470691
0.0485937
0.0500997
0.051585
0.0530477
0.0544856
0.055897
0.0572797
0.0586321
0.0599521
0.061238
0.0624881
0.0637005
0.0648738
0.0660062
0.0670962
0.0681425
0.0691435
0.070098
0.0710047
0.0718624
0.0726702
0.0734269
0.0741317
0.0747838
0.0753825
0.0759273
0.0764176
0.0768532
0.0772338
0.0775592
0.0778296
0.0780451
0.0782058
0.0783124
0.0783653
0.0783653
0.0783132
0.07821
0.0780569
0.0778553
0.0776066
0.0773126
0.0769751
0.076596
0.0761776
0.0757222
0.0752323
0.0747106
0.07416
0.0735835
0.0729843
0.0723658
0.0717314
0.0710849
0.0704301
0.0697708
0.069111
0.0684549
0.0678068
0.0671707
0.066551
0.0659519
0.0653776
0.0648322
0.0643198
0.0638442
0.0634092
0.0630192
0.0626788
0.062377
0.0621007
0.00624539
0.00583604
0.00543095
0.00500828
0.00454651
0.00404996
0.00352328
0.00296955
0.00239201
0.00179421
0.00117979
0.000552433
-8.41423e-05
-0.000726194
-0.00137
-0.00201191
-0.0026483
-0.00327567
-0.00389058
-0.0044897
-0.00506988
-0.00562809
-0.00616149
-0.00666738
-0.00714319
-0.00758653
-0.00799515
-0.00836694
-0.00869997
-0.00899245
-0.00924275
-0.0094494
-0.00961105
-0.00972653
-0.00979476
-0.00981481
-0.00978589
-0.00970732
-0.00957858
-0.00939926
-0.00916907
-0.0088878
-0.00855539
-0.00817184
-0.00773728
-0.00725193
-0.00671609
-0.00613017
-0.00549468
-0.00481021
-0.00407742
-0.00329705
-0.00246992
-0.00159691
-0.000679008
0.000282762
0.00128729
0.00233341
0.0034199
0.00454548
0.0057088
0.00690849
0.00814307
0.00941106
0.0107109
0.012041
0.0133997
0.0147853
0.0161962
0.0176304
0.0190864
0.0205621
0.0220558
0.0235656
0.0250896
0.0266258
0.0281722
0.0297269
0.0312878
0.032853
0.0344204
0.0359879
0.0375536
0.0391153
0.0406711
0.0422188
0.0437564
0.0452819
0.0467932
0.0482883
0.0497653
0.0512221
0.0526567
0.0540672
0.0554516
0.0568082
0.058135
0.0594303
0.0606922
0.061919
0.0631091
0.0642609
0.0653727
0.0664432
0.0674708
0.0684541
0.069392
0.0702832
0.0711265
0.0719209
0.0726653
0.0733591
0.0740013
0.0745913
0.0751286
0.0756126
0.0760431
0.0764197
0.0767425
0.0770114
0.0772265
0.0773882
0.0774968
0.0775528
0.077557
0.0775102
0.0774133
0.0772676
0.0770741
0.0768345
0.0765503
0.0762233
0.0758553
0.0754485
0.075005
0.0745273
0.0740178
0.0734794
0.0729149
0.0723272
0.0717195
0.0710951
0.0704575
0.0698101
0.0691566
0.0685006
0.067846
0.0671965
0.0665561
0.0659286
0.0653178
0.0647276
0.0641615
0.0636232
0.0631159
0.0626429
0.0622084
0.0618168
0.0614501
0.0610894
0.00730397
0.00680565
0.00633117
0.00585292
0.00534226
0.00480331
0.00424065
0.00365678
0.00305444
0.00243669
0.00180671
0.00116777
0.000523168
-0.000123739
-0.000769611
-0.00141113
-0.00204502
-0.00266805
-0.00327709
-0.00386909
-0.00444115
-0.00499049
-0.00551448
-0.00601061
-0.00647648
-0.00690986
-0.00730863
-0.00767084
-0.00799467
-0.00827845
-0.00852064
-0.00871985
-0.00887482
-0.00898442
-0.00904765
-0.00906363
-0.0090316
-0.00895094
-0.00882115
-0.00864185
-0.00841277
-0.00813372
-0.00780463
-0.00742552
-0.00699652
-0.00651784
-0.00598979
-0.00541278
-0.00478729
-0.0041139
-0.00339326
-0.00262609
-0.00181318
-0.000955403
-5.37095e-05
0.000890889
0.00187732
0.00290444
0.00397106
0.00507595
0.00621778
0.00739519
0.00860678
0.00985108
0.0111266
0.0124317
0.0137648
0.0151243
0.0165086
0.0179157
0.0193442
0.0207921
0.0222576
0.0237388
0.025234
0.0267412
0.0282585
0.0297839
0.0313155
0.0328512
0.0343892
0.0359274
0.0374638
0.0389963
0.0405231
0.042042
0.0435511
0.0450484
0.0465318
0.0479995
0.0494493
0.0508795
0.052288
0.0536729
0.0550324
0.0563646
0.0576677
0.0589399
0.0601795
0.0613848
0.0625541
0.0636859
0.0647787
0.0658309
0.0668412
0.0678082
0.0687307
0.0696075
0.0704373
0.0712193
0.0719525
0.072636
0.073269
0.0738509
0.0743811
0.0748592
0.0752848
0.0756577
0.0759778
0.076245
0.0764596
0.0766218
0.0767319
0.0767904
0.0767981
0.0767557
0.0766641
0.0765244
0.0763378
0.0761057
0.0758296
0.0755112
0.0751523
0.0747549
0.0743211
0.073853
0.0733533
0.0728243
0.0722687
0.0716895
0.0710894
0.0704717
0.0698394
0.0691959
0.0685445
0.0678886
0.0672316
0.0665771
0.0659285
0.0652894
0.0646633
0.0640534
0.0634631
0.0628955
0.0623533
0.0618393
0.0613577
0.0609126
0.0604792
0.060033
0.00839367
0.00780605
0.00726118
0.0067258
0.00616425
0.00558055
0.00497925
0.00436237
0.00373217
0.00309127
0.00244245
0.00178857
0.00113256
0.000477413
-0.000173883
-0.000818329
-0.00145294
-0.0020748
-0.00268103
-0.00326888
-0.00383569
-0.00437891
-0.00489609
-0.00538492
-0.00584317
-0.00626877
-0.00665975
-0.00701428
-0.00733067
-0.00760736
-0.00784291
-0.00803602
-0.00818551
-0.0082903
-0.00834947
-0.00836217
-0.00832772
-0.00824553
-0.00811515
-0.0079362
-0.00770845
-0.00743173
-0.00710596
-0.00673119
-0.00630755
-0.00583526
-0.00531462
-0.00474604
-0.00412999
-0.00346704
-0.00275782
-0.00200304
-0.00120348
-0.000359985
0.000526512
0.00145502
0.0024245
0.00343384
0.00448188
0.00556739
0.00668911
0.0078457
0.00903578
0.0102579
0.0115106
0.0127924
0.0141016
0.0154367
0.0167961
0.018178
0.0195807
0.0210025
0.0224417
0.0238963
0.0253647
0.0268448
0.0283348
0.0298329
0.0313371
0.0328454
0.034356
0.0358668
0.0373759
0.0388813
0.0403811
0.0418732
0.0433558
0.0448268
0.0462843
0.0477264
0.0491512
0.0505566
0.0519409
0.0533021
0.0546384
0.055948
0.0572291
0.05848
0.0596989
0.0608843
0.0620344
0.0631478
0.0642229
0.0652583
0.0662526
0.0672045
0.0681128
0.0689762
0.0697938
0.0705643
0.071287
0.0719609
0.0725854
0.0731597
0.0736834
0.0741559
0.0745769
0.0749462
0.0752636
0.0755292
0.075743
0.0759054
0.0760165
0.076077
0.0760874
0.0760485
0.0759611
0.0758264
0.0756453
0.0754193
0.0751498
0.0748383
0.0744866
0.0740966
0.0736702
0.0732096
0.072717
0.0721948
0.0716455
0.0710718
0.0704765
0.0698623
0.0692322
0.0685892
0.0679366
0.0672773
0.0666145
0.0659515
0.0652914
0.0646373
0.0639924
0.0633597
0.0627421
0.0621422
0.0615625
0.061005
0.0604742
0.0599739
0.0594727
0.0589406
0.00950596
0.00882927
0.00821352
0.00761991
0.00700596
0.00637561
0.00573347
0.00508114
0.00442043
0.00375359
0.00308303
0.00241124
0.00174081
0.00107438
0.000414627
-0.000235737
-0.000874026
-0.00149759
-0.00210385
-0.0026903
-0.00325451
-0.00379414
-0.00430694
-0.00479076
-0.00524357
-0.00566343
-0.00604853
-0.00639717
-0.00670778
-0.00697891
-0.00720923
-0.0073975
-0.00754264
-0.00764364
-0.00769962
-0.00770983
-0.0076736
-0.00759042
-0.00745986
-0.00728158
-0.00705537
-0.00678106
-0.00645862
-0.00608809
-0.00566961
-0.00520341
-0.00468981
-0.0041292
-0.00352205
-0.00286891
-0.0021704
-0.00142723
-0.000640152
0.000189987
0.00106228
0.00197577
0.00292943
0.00392217
0.00495286
0.00602031
0.00712328
0.00826045
0.00943047
0.0106319
0.0118634
0.0131234
0.0144104
0.0157227
0.0170589
0.0184173
0.0197961
0.0211937
0.0226083
0.0240381
0.0254815
0.0269364
0.0284012
0.0298739
0.0313526
0.0328354
0.0343205
0.0358059
0.0372896
0.0387699
0.0402446
0.0417119
0.0431699
0.0446167
0.0460502
0.0474687
0.0488701
0.0502527
0.0516146
0.0529539
0.0542688
0.0555576
0.0568184
0.0580496
0.0592495
0.0604165
0.061549
0.0626454
0.0637043
0.0647242
0.0657039
0.0666419
0.0675371
0.0683884
0.0691945
0.0699546
0.0706676
0.0713328
0.0719494
0.0725167
0.0730343
0.0735016
0.0739183
0.0742841
0.0745989
0.0748628
0.0750757
0.0752378
0.0753496
0.0754115
0.0754239
0.0753877
0.0753037
0.0751727
0.074996
0.0747748
0.0745103
0.0742041
0.0738579
0.0734734
0.0730524
0.072597
0.0721092
0.0715914
0.0710459
0.0704751
0.0698816
0.0692681
0.0686373
0.0679919
0.0673349
0.0666691
0.0659974
0.0653228
0.064648
0.063976
0.0633094
0.062651
0.0620033
0.0613687
0.0607491
0.0601463
0.0595646
0.059008
0.0584383
0.0578203
0.0106331
0.00986798
0.00918124
0.00852869
0.00786118
0.00718268
0.00649789
0.00580806
0.00511459
0.00441942
0.00372458
0.00303225
0.0023447
0.00166427
0.000993354
0.000334367
-0.000310279
-0.00093821
-0.0015471
-0.00213467
-0.00269872
-0.00323711
-0.00374777
-0.00422873
-0.00467812
-0.00509416
-0.00547516
-0.00581959
-0.00612597
-0.00639298
-0.00661937
-0.006804
-0.00694586
-0.00704401
-0.00709765
-0.00710608
-0.00706871
-0.00698504
-0.0068547
-0.00667738
-0.00645288
-0.00618108
-0.00586195
-0.00549555
-0.00508204
-0.00462165
-0.00411471
-0.00356161
-0.00296281
-0.00231886
-0.00163037
-0.000898039
-0.000122612
0.000695083
0.00155416
0.00245366
0.0033926
0.00436991
0.00538448
0.00643514
0.00752068
0.00863981
0.0097912
0.0109735
0.0121852
0.013425
0.0146913
0.0159826
0.0172973
0.0186337
0.0199904
0.0213655
0.0227573
0.0241642
0.0255844
0.027016
0.0284573
0.0299065
0.0313617
0.0328209
0.0342825
0.0357443
0.0372047
0.0386616
0.0401133
0.0415577
0.042993
0.0444174
0.0458288
0.0472255
0.0486055
0.0499671
0.0513084
0.0526276
0.0539229
0.0551925
0.0564347
0.0576479
0.0588304
0.0599806
0.0610969
0.0621778
0.0632218
0.0642277
0.0651939
0.0661193
0.0670026
0.0678427
0.0686385
0.0693889
0.0700931
0.0707503
0.0713597
0.0719206
0.0724326
0.072895
0.0733077
0.0736702
0.0739825
0.0742446
0.0744564
0.0746182
0.0747302
0.0747929
0.0748068
0.0747725
0.0746909
0.0745628
0.0743893
0.0741715
0.0739107
0.0736084
0.0732659
0.0728851
0.0724676
0.0720154
0.0715304
0.0710147
0.0704705
0.0699002
0.0693061
0.0686906
0.0680563
0.0674057
0.0667416
0.0660665
0.065383
0.0646939
0.0640017
0.063309
0.0626181
0.0619315
0.0612515
0.06058
0.0599187
0.0592689
0.0586352
0.0580215
0.0573831
0.0566795
0.0117682
0.0109154
0.0101579
0.00944596
0.00872407
0.00799626
0.00726738
0.00653834
0.00581022
0.00508462
0.00436329
0.00364812
0.00294108
0.00224424
0.00155972
0.000889668
0.000236221
-0.000398497
-0.00101239
-0.00160341
-0.00216954
-0.00270885
-0.00321944
-0.00369952
-0.00414737
-0.00456136
-0.00493995
-0.00528172
-0.00558534
-0.00584957
-0.00607326
-0.00625537
-0.00639495
-0.00649115
-0.00654323
-0.00655057
-0.00651261
-0.00642893
-0.00629918
-0.00612308
-0.00590047
-0.00563124
-0.0053154
-0.00495301
-0.00454427
-0.00408941
-0.00358876
-0.00304271
-0.00245173
-0.00181635
-0.0011372
-0.000414946
0.000349659
0.0011558
0.00200261
0.00288916
0.00381446
0.00477748