/*--------------------------------*- C++ -*----------------------------------*\
  =========                 |
  \\      /  F ield         | OpenFOAM: The Open Source CFD Toolbox
   \\    /   O peration     | Website:  https://openfoam.org
    \\  /    A nd           | Version:  7
     \\/     M anipulation  |
\*---------------------------------------------------------------------------*/
FoamFile
{
    version     2.0;
    format      ascii;
    class       surfaceScalarField;
    location    "0.3375";
    object      phi;
}
// * * * * * * * * * * * * * * * * * * * * * * * * * * * * * * * * * * * * * //

dimensions      [0 3 -1 0 0 0 0];

internalField   nonuniform List<scalar> 
50880
(
5.88599e-12
-6.34404e-12
3.61592e-11
-3.02988e-11
8.11053e-11
-4.49178e-11
1.30746e-10
-4.96431e-11
1.77975e-10
-4.72509e-11
2.17845e-10
-3.98709e-11
2.4692e-10
-2.90613e-11
2.62872e-10
-1.59454e-11
2.64179e-10
-1.30749e-12
2.49881e-10
1.42978e-11
2.19417e-10
3.04626e-11
1.72527e-10
4.68854e-11
1.09177e-10
6.33453e-11
2.9502e-11
7.9675e-11
-6.62381e-11
9.57424e-11
-1.77682e-10
1.11444e-10
-3.04386e-10
1.26703e-10
-4.45845e-10
1.41458e-10
-6.01509e-10
1.55664e-10
-7.7079e-10
1.69283e-10
-9.53076e-10
1.82288e-10
-1.14773e-09
1.94656e-10
-1.35411e-09
2.06372e-10
-1.57153e-09
2.17426e-10
-1.79934e-09
2.2781e-10
-2.03686e-09
2.37521e-10
-2.28342e-09
2.46554e-10
-2.53833e-09
2.54913e-10
-2.80093e-09
2.62599e-10
-3.07055e-09
2.69618e-10
-3.34652e-09
2.75975e-10
-3.62819e-09
2.81674e-10
-3.91492e-09
2.86724e-10
-4.20605e-09
2.91133e-10
-4.50096e-09
2.94911e-10
-4.79903e-09
2.98068e-10
-5.09964e-09
3.00613e-10
-5.4022e-09
3.02557e-10
-5.70611e-09
3.03911e-10
-6.0108e-09
3.04686e-10
-6.31569e-09
3.04895e-10
-6.62024e-09
3.04548e-10
-6.9239e-09
3.03659e-10
-7.22614e-09
3.02238e-10
-7.52644e-09
3.003e-10
-7.82429e-09
2.97856e-10
-8.11921e-09
2.94918e-10
-8.41072e-09
2.91501e-10
-8.69833e-09
2.87617e-10
-8.98161e-09
2.83278e-10
-9.26011e-09
2.78497e-10
-9.53339e-09
2.73288e-10
-9.80106e-09
2.67663e-10
-1.00627e-08
2.61635e-10
-1.03179e-08
2.55218e-10
-1.05663e-08
2.48425e-10
-1.08076e-08
2.41269e-10
-1.10414e-08
2.33763e-10
-1.12673e-08
2.25921e-10
-1.1485e-08
2.17755e-10
-1.16943e-08
2.09279e-10
-1.18948e-08
2.00507e-10
-1.20863e-08
1.91451e-10
-1.22684e-08
1.82126e-10
-1.2441e-08
1.72544e-10
-1.26037e-08
1.6272e-10
-1.27563e-08
1.52667e-10
-1.28987e-08
1.42398e-10
-1.30307e-08
1.31928e-10
-1.31519e-08
1.2127e-10
-1.32624e-08
1.1044e-10
-1.33618e-08
9.94497e-11
-1.34501e-08
8.83144e-11
-1.35272e-08
7.70483e-11
-1.35929e-08
6.56656e-11
-1.3647e-08
5.41812e-11
-1.36897e-08
4.26097e-11
-1.37206e-08
3.0966e-11
-1.37399e-08
1.92649e-11
-1.37474e-08
7.52172e-12
-1.37432e-08
-4.2484e-12
-1.37271e-08
-1.603e-11
-1.36993e-08
-2.78076e-11
-1.36598e-08
-3.95656e-11
-1.36085e-08
-5.1288e-11
-1.35455e-08
-6.29589e-11
-1.34709e-08
-7.45623e-11
-1.33849e-08
-8.60819e-11
-1.32874e-08
-9.75016e-11
-1.31786e-08
-1.08805e-10
-1.30586e-08
-1.19975e-10
-1.29276e-08
-1.30996e-10
-1.27857e-08
-1.4185e-10
-1.26332e-08
-1.5252e-10
-1.24702e-08
-1.6299e-10
-1.2297e-08
-1.73243e-10
-1.21137e-08
-1.83261e-10
-1.19207e-08
-1.93028e-10
-1.17182e-08
-2.02527e-10
-1.15064e-08
-2.1174e-10
-1.12858e-08
-2.2065e-10
-1.10565e-08
-2.2924e-10
-1.0819e-08
-2.37493e-10
-1.05736e-08
-2.45393e-10
-1.03207e-08
-2.52923e-10
-1.00607e-08
-2.60065e-10
-9.79385e-09
-2.66804e-10
-9.52073e-09
-2.73122e-10
-9.24173e-09
-2.79005e-10
-8.95729e-09
-2.84435e-10
-8.66789e-09
-2.89398e-10
-8.37402e-09
-2.93878e-10
-8.07616e-09
-2.97859e-10
-7.77483e-09
-3.01327e-10
-7.47056e-09
-3.04267e-10
-7.1639e-09
-3.06666e-10
-6.85539e-09
-3.08511e-10
-6.5456e-09
-3.09787e-10
-6.23512e-09
-3.10483e-10
-5.92453e-09
-3.10587e-10
-5.61445e-09
-3.10086e-10
-5.30548e-09
-3.08971e-10
-4.99825e-09
-3.0723e-10
-4.69339e-09
-3.04856e-10
-4.39155e-09
-3.01838e-10
-4.09338e-09
-2.9817e-10
-3.79954e-09
-2.93844e-10
-3.51068e-09
-2.88854e-10
-3.22749e-09
-2.83196e-10
-2.95062e-09
-2.76866e-10
-2.68076e-09
-2.69862e-10
-2.41858e-09
-2.62182e-10
-2.16475e-09
-2.53826e-10
-1.91995e-09
-2.44797e-10
-1.68486e-09
-2.35098e-10
-1.46012e-09
-2.24736e-10
-1.2464e-09
-2.13719e-10
-1.04435e-09
-2.02059e-10
-8.54576e-10
-1.8977e-10
-6.77703e-10
-1.76871e-10
-5.14314e-10
-1.63388e-10
-3.64966e-10
-1.49348e-10
-2.30179e-10
-1.34788e-10
-1.10429e-10
-1.19751e-10
-6.1371e-12
-1.04293e-10
8.23454e-11
-8.8483e-11
1.54752e-10
-7.24077e-11
2.10927e-10
-5.61751e-11
2.5085e-10
-3.99226e-11
2.74679e-10
-2.38266e-11
2.82798e-10
-8.11707e-12
2.75898e-10
6.90163e-12
2.55076e-10
2.08217e-11
2.21988e-10
3.30863e-11
1.79069e-10
4.29171e-11
1.29844e-10
4.92225e-11
7.93355e-11
5.05079e-11
3.46131e-11
4.47219e-11
5.32831e-12
2.928e-11
5.31877e-12
3.00009e-11
-3.63705e-11
1.01157e-10
-1.01398e-10
1.95413e-10
-1.39179e-10
2.95716e-10
-1.49971e-10
3.87732e-10
-1.39266e-10
4.60217e-10
-1.12345e-10
5.04702e-10
-7.35423e-11
5.15001e-10
-2.62449e-11
4.8673e-10
2.69678e-11
4.16886e-10
8.41426e-11
3.03546e-10
1.43794e-10
1.45632e-10
2.04791e-10
-5.72855e-11
2.66263e-10
-3.05132e-10
3.27526e-10
-5.97434e-10
3.88046e-10
-9.33394e-10
4.47402e-10
-1.31196e-09
5.05267e-10
-1.73188e-09
5.61378e-10
-2.19174e-09
6.1553e-10
-2.69002e-09
6.67559e-10
-3.22506e-09
7.17335e-10
-3.79517e-09
7.6476e-10
-4.39855e-09
8.09758e-10
-5.0334e-09
8.52274e-10
-5.69786e-09
8.92267e-10
-6.39005e-09
9.2971e-10
-7.10808e-09
9.64587e-10
-7.85006e-09
9.96892e-10
-8.61409e-09
1.02663e-09
-9.39828e-09
1.05381e-09
-1.02007e-08
1.07844e-09
-1.10196e-08
1.10055e-09
-1.1853e-08
1.12015e-09
-1.26992e-08
1.13728e-09
-1.35563e-08
1.15198e-09
-1.44225e-08
1.16426e-09
-1.5296e-08
1.17417e-09
-1.61752e-08
1.18176e-09
-1.70583e-08
1.18705e-09
-1.79437e-08
1.19009e-09
-1.88298e-08
1.19092e-09
-1.97148e-08
1.18959e-09
-2.05973e-08
1.18615e-09
-2.14757e-08
1.18063e-09
-2.23485e-08
1.1731e-09
-2.32142e-08
1.16359e-09
-2.40715e-08
1.15215e-09
-2.49188e-08
1.13883e-09
-2.57549e-08
1.12369e-09
-2.65784e-08
1.10677e-09
-2.7388e-08
1.08812e-09
-2.81825e-08
1.0678e-09
-2.89607e-08
1.04584e-09
-2.97214e-08
1.02231e-09
-3.04634e-08
9.97256e-10
-3.11857e-08
9.70727e-10
-3.18872e-08
9.42774e-10
-3.25669e-08
9.13451e-10
-3.32238e-08
8.82808e-10
-3.38569e-08
8.50898e-10
-3.44654e-08
8.17772e-10
-3.50484e-08
7.83484e-10
-3.5605e-08
7.48086e-10
-3.61345e-08
7.11631e-10
-3.66362e-08
6.74172e-10
-3.71092e-08
6.35761e-10
-3.7553e-08
5.96454e-10
-3.79669e-08
5.56304e-10
-3.83503e-08
5.15365e-10
-3.87028e-08
4.73693e-10
-3.90237e-08
4.31342e-10
-3.93126e-08
3.88367e-10
-3.95691e-08
3.44826e-10
-3.97928e-08
3.00774e-10
-3.99834e-08
2.56267e-10
-4.01406e-08
2.11364e-10
-4.02641e-08
1.66123e-10
-4.03538e-08
1.206e-10
-4.04093e-08
7.48564e-11
-4.04308e-08
2.89501e-11
-4.0418e-08
-1.70585e-11
-4.03709e-08
-6.3109e-11
-4.02895e-08
-1.0914e-10
-4.0174e-08
-1.55091e-10
-4.00244e-08
-2.00899e-10
-3.98409e-08
-2.46502e-10
-3.96236e-08
-2.91837e-10
-3.93728e-08
-3.36841e-10
-3.90889e-08
-3.81449e-10
-3.87721e-08
-4.25597e-10
-3.84229e-08
-4.6922e-10
-3.80416e-08
-5.12252e-10
-3.76288e-08
-5.5463e-10
-3.71851e-08
-5.96285e-10
-3.67109e-08
-6.37153e-10
-3.6207e-08
-6.77167e-10
-3.5674e-08
-7.16261e-10
-3.51126e-08
-7.54368e-10
-3.45237e-08
-7.91421e-10
-3.39081e-08
-8.27354e-10
-3.32667e-08
-8.621e-10
-3.26003e-08
-8.95594e-10
-3.191e-08
-9.27769e-10
-3.11969e-08
-9.5856e-10
-3.04619e-08
-9.87901e-10
-2.97062e-08
-1.01573e-09
-2.89311e-08
-1.04198e-09
-2.81376e-08
-1.06658e-09
-2.73271e-08
-1.08949e-09
-2.65009e-08
-1.11063e-09
-2.56604e-08
-1.12994e-09
-2.48069e-08
-1.14737e-09
-2.39419e-08
-1.16285e-09
-2.30669e-08
-1.17633e-09
-2.21834e-08
-1.18776e-09
-2.1293e-08
-1.19709e-09
-2.03972e-08
-1.20425e-09
-1.94978e-08
-1.2092e-09
-1.85964e-08
-1.2119e-09
-1.76947e-08
-1.21229e-09
-1.67945e-08
-1.21034e-09
-1.58974e-08
-1.206e-09
-1.50054e-08
-1.19924e-09
-1.41203e-08
-1.19002e-09
-1.32438e-08
-1.17832e-09
-1.23779e-08
-1.1641e-09
-1.15244e-08
-1.14733e-09
-1.06852e-08
-1.12801e-09
-9.86228e-09
-1.10612e-09
-9.05751e-09
-1.08164e-09
-8.27281e-09
-1.05456e-09
-7.5101e-09
-1.0249e-09
-6.77127e-09
-9.92649e-10
-6.05824e-09
-9.57831e-10
-5.37288e-09
-9.20464e-10
-4.71703e-09
-8.80582e-10
-4.09252e-09
-8.38225e-10
-3.50113e-09
-7.93449e-10
-2.94458e-09
-7.46322e-10
-2.42453e-09
-6.96929e-10
-1.94254e-09
-6.45375e-10
-1.5001e-09
-5.91789e-10
-1.09856e-09
-5.36329e-10
-7.39122e-10
-4.79186e-10
-4.22815e-10
-4.20597e-10
-1.50442e-10
-3.60854e-10
7.74632e-11
-3.00314e-10
2.60708e-10
-2.39421e-10
3.99516e-10
-1.7873e-10
4.94631e-10
-1.18942e-10
5.47457e-10
-6.09463e-11
5.60241e-10
-5.88551e-12
5.36301e-10
4.47621e-11
4.80325e-10
8.90655e-11
3.98747e-10
1.24495e-10
3.002e-10
1.47771e-10
1.95953e-10
1.54764e-10
1.00153e-10
1.40534e-10
2.9274e-11
1.00171e-10
3.45902e-11
4.4828e-11
-8.11701e-11
1.39088e-10
-1.95668e-10
2.56293e-10
-2.56421e-10
3.74842e-10
-2.68522e-10
4.76452e-10
-2.40853e-10
5.46228e-10
-1.82109e-10
5.72465e-10
-9.97779e-11
5.46214e-10
7.44507e-15
4.60843e-10
1.1234e-10
3.11607e-10
2.33371e-10
9.5318e-11
3.60074e-10
-1.89969e-10
4.90076e-10
-5.45201e-10
6.21499e-10
-9.70526e-10
7.52854e-10
-1.46544e-09
8.82956e-10
-2.0289e-09
1.01086e-09
-2.65946e-09
1.13582e-09
-3.3553e-09
1.25722e-09
-4.11435e-09
1.37458e-09
-4.93431e-09
1.48752e-09
-5.81269e-09
1.59572e-09
-6.74687e-09
1.69894e-09
-7.7341e-09
1.79699e-09
-8.77156e-09
1.88973e-09
-9.85635e-09
1.97706e-09
-1.09855e-08
2.05888e-09
-1.21561e-08
2.13517e-09
-1.33651e-08
2.20588e-09
-1.46095e-08
2.27102e-09
-1.58863e-08
2.33059e-09
-1.71924e-08
2.38462e-09
-1.8525e-08
2.43313e-09
-1.9881e-08
2.47617e-09
-2.12576e-08
2.5138e-09
-2.26517e-08
2.54609e-09
-2.40605e-08
2.5731e-09
-2.54812e-08
2.5949e-09
-2.69111e-08
2.61158e-09
-2.83472e-08
2.62321e-09
-2.9787e-08
2.6299e-09
-3.12279e-08
2.63173e-09
-3.26671e-08
2.6288e-09
-3.41021e-08
2.6212e-09
-3.55305e-08
2.60903e-09
-3.69498e-08
2.59241e-09
-3.83577e-08
2.57142e-09
-3.97517e-08
2.54618e-09
-4.11296e-08
2.51679e-09
-4.24893e-08
2.48336e-09
-4.38285e-08
2.446e-09
-4.51452e-08
2.40482e-09
-4.64374e-08
2.35992e-09
-4.7703e-08
2.31143e-09
-4.89401e-08
2.25945e-09
-5.01469e-08
2.20409e-09
-5.13217e-08
2.14546e-09
-5.24626e-08
2.08369e-09
-5.3568e-08
2.01888e-09
-5.46364e-08
1.95115e-09
-5.56661e-08
1.88062e-09
-5.66557e-08
1.80739e-09
-5.76038e-08
1.73159e-09
-5.8509e-08
1.65333e-09
-5.93701e-08
1.57273e-09
-6.01859e-08
1.48991e-09
-6.09551e-08
1.40498e-09
-6.16767e-08
1.31806e-09
-6.23497e-08
1.22928e-09
-6.29731e-08
1.13876e-09
-6.3546e-08
1.04661e-09
-6.40676e-08
9.52964e-10
-6.45372e-08
8.57938e-10
-6.4954e-08
7.61659e-10
-6.53175e-08
6.64252e-10
-6.56271e-08
5.65843e-10
-6.58823e-08
4.66559e-10
-6.60827e-08
3.66529e-10
-6.6228e-08
2.65882e-10
-6.63179e-08
1.64749e-10
-6.63522e-08
6.32621e-11
-6.63308e-08
-3.84467e-11
-6.62537e-08
-1.40243e-10
-6.61208e-08
-2.41992e-10
-6.59323e-08
-3.43557e-10
-6.56884e-08
-4.448e-10
-6.53894e-08
-5.45584e-10
-6.50354e-08
-6.45769e-10
-6.46271e-08
-7.45213e-10
-6.41647e-08
-8.43775e-10
-6.3649e-08
-9.41314e-10
-6.30805e-08
-1.03769e-09
-6.24601e-08
-1.13274e-09
-6.17883e-08
-1.22635e-09
-6.10663e-08
-1.31835e-09
-6.02948e-08
-1.4086e-09
-5.9475e-08
-1.49696e-09
-5.8608e-08
-1.58328e-09
-5.7695e-08
-1.66741e-09
-5.67372e-08
-1.7492e-09
-5.5736e-08
-1.82852e-09
-5.46929e-08
-1.9052e-09
-5.36094e-08
-1.97912e-09
-5.24871e-08
-2.05011e-09
-5.13276e-08
-2.11805e-09
-5.01327e-08
-2.18277e-09
-4.89043e-08
-2.24416e-09
-4.76442e-08
-2.30205e-09
-4.63545e-08
-2.35631e-09
-4.50372e-08
-2.40682e-09
-4.36944e-08
-2.45342e-09
-4.23283e-08
-2.496e-09
-4.09413e-08
-2.53441e-09
-3.95356e-08
-2.56854e-09
-3.81136e-08
-2.59826e-09
-3.6678e-08
-2.62345e-09
-3.5231e-08
-2.644e-09
-3.37755e-08
-2.65978e-09
-3.2314e-08
-2.67071e-09
-3.08492e-08
-2.67667e-09
-2.9384e-08
-2.67756e-09
-2.7921e-08
-2.6733e-09
-2.64632e-08
-2.6638e-09
-2.50135e-08
-2.64897e-09
-2.35747e-08
-2.62876e-09
-2.215e-08
-2.60309e-09
-2.07422e-08
-2.5719e-09
-1.93543e-08
-2.53516e-09
-1.79895e-08
-2.49281e-09
-1.66508e-08
-2.44484e-09
-1.53412e-08
-2.39122e-09
-1.40638e-08
-2.33195e-09
-1.28217e-08
-2.26705e-09
-1.16178e-08
-2.19652e-09
-1.04552e-08
-2.12042e-09
-9.33688e-09
-2.03881e-09
-8.2657e-09
-1.95176e-09
-7.24454e-09
-1.85939e-09
-6.27617e-09
-1.76182e-09
-5.36327e-09
-1.65922e-09
-4.50839e-09
-1.55181e-09
-3.71395e-09
-1.43982e-09
-2.98216e-09
-1.32357e-09
-2.31506e-09
-1.20343e-09
-1.71439e-09
-1.07985e-09
-1.18163e-09
-9.53362e-10
-7.17842e-10
-8.24641e-10
-3.23663e-10
-6.94494e-10
8.29256e-13
-5.63914e-10
2.56229e-10
-4.34128e-10
4.43947e-10
-3.06658e-10
5.66403e-10
-1.83403e-10
6.27261e-10
-6.67449e-11
6.31706e-10
4.03163e-11
5.86785e-10
1.33988e-10
5.01781e-10
2.09499e-10
3.88616e-10
2.60932e-10
2.62194e-10
2.81178e-10
1.4055e-10
2.6217e-10
4.47104e-11
1.96019e-10
7.9301e-11
4.96896e-11
-1.3086e-10
1.5023e-10
-2.96237e-10
2.69051e-10
-3.7525e-10
3.80962e-10
-3.80426e-10
4.65154e-10
-3.25034e-10
5.04555e-10
-2.21502e-10
4.85447e-10
-8.06633e-11
3.97057e-10
8.84007e-11
2.31152e-10
2.7824e-10
-1.83181e-11
4.82832e-10
-3.55576e-10
6.97327e-10
-7.83329e-10
9.1783e-10
-1.30303e-09
1.1412e-09
-1.91509e-09
1.36492e-09
-2.61907e-09
1.58693e-09
-3.41381e-09
1.8056e-09
-4.29757e-09
2.01958e-09
-5.26814e-09
2.2278e-09
-6.32292e-09
2.42937e-09
-7.45899e-09
2.62359e-09
-8.67316e-09
2.80988e-09
-9.96202e-09
2.9878e-09
-1.1322e-08
3.15697e-09
-1.27494e-08
3.31713e-09
-1.42404e-08
3.46806e-09
-1.57911e-08
3.6096e-09
-1.73976e-08
3.74164e-09
-1.90558e-08
3.86412e-09
-2.07618e-08
3.97701e-09
-2.25115e-08
4.0803e-09
-2.43009e-08
4.17401e-09
-2.6126e-08
4.2582e-09
-2.79828e-08
4.33294e-09
-2.98672e-08
4.3983e-09
-3.17755e-08
4.45438e-09
-3.37037e-08
4.5013e-09
-3.5648e-08
4.53917e-09
-3.76046e-08
4.56814e-09
-3.95697e-08
4.58834e-09
-4.15397e-08
4.59992e-09
-4.3511e-08
4.60303e-09
-4.54801e-08
4.59784e-09
-4.74434e-08
4.58451e-09
-4.93975e-08
4.56322e-09
-5.13393e-08
4.53413e-09
-5.32653e-08
4.49743e-09
-5.51724e-08
4.4533e-09
-5.70575e-08
4.40191e-09
-5.89176e-08
4.34347e-09
-6.07498e-08
4.27814e-09
-6.25511e-08
4.20614e-09
-6.43188e-08
4.12764e-09
-6.60502e-08
4.04283e-09
-6.77427e-08
3.95193e-09
-6.93937e-08
3.85511e-09
-7.10008e-08
3.75258e-09
-7.25617e-08
3.64453e-09
-7.40739e-08
3.53116e-09
-7.55355e-08
3.41268e-09
-7.69441e-08
3.28929e-09
-7.82979e-08
3.16118e-09
-7.95949e-08
3.02856e-09
-8.08332e-08
2.89164e-09
-8.20111e-08
2.75062e-09
-8.31269e-08
2.6057e-09
-8.4179e-08
2.4571e-09
-8.5166e-08
2.30502e-09
-8.60864e-08
2.14967e-09
-8.69389e-08
1.99128e-09
-8.77223e-08
1.83004e-09
-8.84355e-08
1.66617e-09
-8.90775e-08
1.4999e-09
-8.96472e-08
1.33144e-09
-9.0144e-08
1.161e-09
-9.0567e-08
9.88818e-10
-9.09155e-08
8.15107e-10
-9.11891e-08
6.40095e-10
-9.13872e-08
4.64009e-10
-9.15095e-08
2.87079e-10
-9.15558e-08
1.09536e-10
-9.15259e-08
-6.83878e-11
-9.14197e-08
-2.46457e-10
-9.12372e-08
-4.24434e-10
-9.09787e-08
-6.0208e-10
-9.06443e-08
-7.79155e-10
-9.02345e-08
-9.55417e-10
-8.97497e-08
-1.13062e-09
-8.91904e-08
-1.30452e-09
-8.85573e-08
-1.47686e-09
-8.78512e-08
-1.6474e-09
-8.7073e-08
-1.81589e-09
-8.62236e-08
-1.98208e-09
-8.53043e-08
-2.14571e-09
-8.43161e-08
-2.30652e-09
-8.32604e-08
-2.46427e-09
-8.21387e-08
-2.61869e-09
-8.09524e-08
-2.76954e-09
-7.97033e-08
-2.91655e-09
-7.8393e-08
-3.05947e-09
-7.70235e-08
-3.19804e-09
-7.55967e-08
-3.33201e-09
-7.41147e-08
-3.46113e-09
-7.25797e-08
-3.58514e-09
-7.09939e-08
-3.70379e-09
-6.93598e-08
-3.81684e-09
-6.768e-08
-3.92403e-09
-6.59569e-08
-4.02512e-09
-6.41933e-08
-4.11987e-09
-6.23921e-08
-4.20805e-09
-6.05561e-08
-4.28942e-09
-5.86884e-08
-4.36375e-09
-5.6792e-08
-4.43081e-09
-5.48701e-08
-4.4904e-09
-5.29261e-08
-4.54229e-09
-5.09632e-08
-4.58629e-09
-4.8985e-08
-4.62218e-09
-4.6995e-08
-4.64979e-09
-4.49968e-08
-4.66892e-09
-4.29941e-08
-4.6794e-09
-4.09906e-08
-4.68106e-09
-3.89901e-08
-4.67376e-09
-3.69966e-08
-4.65734e-09
-3.50139e-08
-4.63168e-09
-3.3046e-08
-4.59665e-09
-3.10969e-08
-4.55214e-09
-2.91708e-08
-4.49807e-09
-2.72716e-08
-4.43436e-09
-2.54034e-08
-4.36096e-09
-2.35705e-08
-4.27781e-09
-2.17768e-08
-4.1849e-09
-2.00265e-08
-4.08224e-09
-1.83237e-08
-3.96985e-09
-1.66724e-08
-3.84779e-09
-1.50767e-08
-3.71615e-09
-1.35405e-08
-3.57504e-09
-1.20676e-08
-3.42463e-09
-1.06619e-08
-3.26512e-09
-9.32692e-09
-3.09676e-09
-8.06626e-09
-2.91988e-09
-6.88322e-09
-2.73485e-09
-5.78091e-09
-2.54214e-09
-4.76217e-09
-2.34231e-09
-3.82957e-09
-2.13603e-09
-2.9853e-09
-1.92412e-09
-2.23112e-09
-1.70755e-09
-1.56827e-09
-1.48749e-09
-9.97396e-10
-1.26537e-09
-5.18383e-10
-1.04293e-09
-1.30256e-10
-8.22254e-10
1.69019e-10
-6.05931e-10
3.82741e-10
-3.97121e-10
5.15718e-10
-1.99715e-10
5.74547e-10
-1.8511e-11
5.67948e-10
1.40586e-10
5.07101e-10
2.70346e-10
4.05994e-10
3.62043e-10
2.81769e-10
4.05406e-10
1.5505e-10
3.88882e-10
5.05555e-11
3.0052e-10
1.29857e-10
4.74713e-11
-1.78349e-10
1.40157e-10
-3.88919e-10
2.42597e-10
-4.77669e-10
3.27399e-10
-4.65219e-10
3.722e-10
-3.69837e-10
3.58649e-10
-2.07948e-10
2.7183e-10
6.1606e-12
9.9839e-11
2.6039e-10
-1.6659e-10
5.4466e-10
-5.34419e-10
8.50652e-10
-1.00863e-09
1.17154e-09
-1.59253e-09
1.50173e-09
-2.28799e-09
1.83666e-09
-3.09566e-09
2.17259e-09
-4.01518e-09
2.50645e-09
-5.04534e-09
2.83575e-09
-6.18419e-09
3.15844e-09
-7.42923e-09
3.47283e-09
-8.77742e-09
3.77756e-09
-1.02253e-08
4.0715e-09
-1.17692e-08
4.35373e-09
-1.34049e-08
4.62353e-09
-1.51282e-08
4.8803e-09
-1.69347e-08
5.12358e-09
-1.88196e-08
5.353e-09
-2.07783e-08
5.5683e-09
-2.2806e-08
5.76928e-09
-2.48977e-08
5.9558e-09
-2.70484e-08
6.1278e-09
-2.92534e-08
6.28525e-09
-3.15076e-08
6.42816e-09
-3.38059e-08
6.55659e-09
-3.61436e-08
6.67062e-09
-3.85157e-08
6.77037e-09
-4.09173e-08
6.85596e-09
-4.33436e-08
6.92756e-09
-4.57897e-08
6.98535e-09
-4.82511e-08
7.02951e-09
-5.0723e-08
7.06025e-09
-5.32009e-08
7.07779e-09
-5.56802e-08
7.08236e-09
-5.81566e-08
7.07421e-09
-6.06256e-08
7.05357e-09
-6.30831e-08
7.02071e-09
-6.55249e-08
6.97588e-09
-6.79468e-08
6.91936e-09
-7.0345e-08
6.85143e-09
-7.27154e-08
6.77235e-09
-7.50543e-08
6.68241e-09
-7.73581e-08
6.58191e-09
-7.96231e-08
6.47112e-09
-8.18458e-08
6.35034e-09
-8.40228e-08
6.21987e-09
-8.61509e-08
6.07999e-09
-8.82268e-08
5.93103e-09
-9.02475e-08
5.77326e-09
-9.221e-08
5.60701e-09
-9.41114e-08
5.43257e-09
-9.5949e-08
5.25025e-09
-9.772e-08
5.06036e-09
-9.94221e-08
4.86322e-09
-1.01053e-07
4.65913e-09
-1.02609e-07
4.44841e-09
-1.0409e-07
4.23138e-09
-1.05493e-07
4.00835e-09
-1.06815e-07
3.77965e-09
-1.08056e-07
3.5456e-09
-1.09213e-07
3.30652e-09
-1.10284e-07
3.06274e-09
-1.11269e-07
2.81459e-09
-1.12165e-07
2.5624e-09
-1.12972e-07
2.30651e-09
-1.13687e-07
2.04725e-09
-1.14311e-07
1.78495e-09
-1.14843e-07
1.51998e-09
-1.1528e-07
1.25266e-09
-1.15623e-07
9.83339e-10
-1.15872e-07
7.12379e-10
-1.16025e-07
4.40129e-10
-1.16082e-07
1.66944e-10
-1.16044e-07
-1.06816e-10
-1.15909e-07
-3.80788e-10
-1.15679e-07
-6.54606e-10
-1.15353e-07
-9.27904e-10
-1.14932e-07
-1.20031e-09
-1.14416e-07
-1.47145e-09
-1.13806e-07
-1.74095e-09
-1.13102e-07
-2.00842e-09
-1.12305e-07
-2.2735e-09
-1.11417e-07
-2.53578e-09
-1.10438e-07
-2.7949e-09
-1.0937e-07
-3.05045e-09
-1.08213e-07
-3.30206e-09
-1.06971e-07
-3.54932e-09
-1.05643e-07
-3.79185e-09
-1.04232e-07
-4.02926e-09
-1.02741e-07
-4.26115e-09
-1.0117e-07
-4.48713e-09
-9.95228e-08
-4.70681e-09
-9.78011e-08
-4.9198e-09
-9.60074e-08
-5.1257e-09
-9.41444e-08
-5.32413e-09
-9.22148e-08
-5.5147e-09
-9.02216e-08
-5.69702e-09
-8.81677e-08
-5.87072e-09
-8.60563e-08
-6.03541e-09
-8.38907e-08
-6.19073e-09
-8.16743e-08
-6.33631e-09
-7.94105e-08
-6.47179e-09
-7.71032e-08
-6.5968e-09
-7.47559e-08
-6.71101e-09
-7.23726e-08
-6.81406e-09
-6.99574e-08
-6.90564e-09
-6.75143e-08
-6.98541e-09
-6.50475e-08
-7.05306e-09
-6.25614e-08
-7.1083e-09
-6.00604e-08
-7.15083e-09
-5.75489e-08
-7.18037e-09
-5.50316e-08
-7.19667e-09
-5.25132e-08
-7.19947e-09
-4.99985e-08
-7.18854e-09
-4.74921e-08
-7.16367e-09
-4.49992e-08
-7.12467e-09
-4.25245e-08
-7.07135e-09
-4.0073e-08
-7.00357e-09
-3.76499e-08
-6.92118e-09
-3.52602e-08
-6.8241e-09
-3.29089e-08
-6.71224e-09
-3.06012e-08
-6.58555e-09
-2.8342e-08
-6.44402e-09
-2.61366e-08
-6.28767e-09
-2.39899e-08
-6.11655e-09
-2.19069e-08
-5.93078e-09
-1.98926e-08
-5.7305e-09
-1.79517e-08
-5.51593e-09
-1.6089e-08
-5.28733e-09
-1.43091e-08
-5.04504e-09
-1.26163e-08
-4.78949e-09
-1.1015e-08
-4.52118e-09
-9.50913e-09
-4.24074e-09
-8.10237e-09
-3.9489e-09
-6.79812e-09
-3.64656e-09
-5.59936e-09
-3.33479e-09
-4.50862e-09
-3.01485e-09
-3.52791e-09
-2.68826e-09
-2.65855e-09
-2.35684e-09
-1.90116e-09
-2.02276e-09
-1.25545e-09
-1.68863e-09
-7.20098e-10
-1.35761e-09
-2.92552e-10
-1.03348e-09
3.11689e-11
-7.20844e-10
2.56722e-10
-4.25269e-10
3.917e-10
-1.53493e-10
4.45934e-10
8.63454e-11
4.31803e-10
2.84475e-10
3.64562e-10
4.29288e-10
2.62739e-10
5.07234e-10
1.48655e-10
5.02962e-10
4.94262e-11
3.99747e-10
1.79283e-10
4.03737e-11
-2.18726e-10
1.14149e-10
-4.62681e-10
1.8558e-10
-5.49087e-10
2.2651e-10
-5.06143e-10
2.13903e-10
-3.57227e-10
1.28804e-10
-1.22845e-10
-4.42941e-11
1.79259e-10
-3.17897e-10
5.33985e-10
-7.01858e-10
9.28612e-10
-1.2037e-09
1.35249e-09
-1.8289e-09
1.79675e-09
-2.58117e-09
2.25401e-09
-3.46267e-09
2.71816e-09
-4.47424e-09
3.18415e-09
-5.61557e-09
3.64778e-09
-6.88541e-09
4.10558e-09
-8.28165e-09
4.55469e-09
-9.80153e-09
4.99272e-09
-1.14417e-08
5.4177e-09
-1.31982e-08
5.82803e-09
-1.50669e-08
6.22238e-09
-1.7043e-08
6.59967e-09
-1.91217e-08
6.95901e-09
-2.12979e-08
7.29972e-09
-2.35661e-08
7.62123e-09
-2.59209e-08
7.92312e-09
-2.83567e-08
8.20509e-09
-3.08678e-08
8.46691e-09
-3.34485e-08
8.70844e-09
-3.60928e-08
8.92962e-09
-3.87951e-08
9.13045e-09
-4.15495e-08
9.31096e-09
-4.43501e-08
9.47127e-09
-4.71913e-08
9.61149e-09
-5.00671e-08
9.73182e-09
-5.2972e-08
9.83244e-09
-5.59003e-08
9.9136e-09
-5.88463e-08
9.97556e-09
-6.18046e-08
1.00186e-08
-6.47698e-08
1.0043e-08
-6.77365e-08
1.0049e-08
-7.06994e-08
1.00371e-08
-7.36534e-08
1.00075e-08
-7.65933e-08
9.96069e-09
-7.95144e-08
9.89691e-09
-8.24116e-08
9.81657e-09
-8.52802e-08
9.72007e-09
-8.81156e-08
9.60778e-09
-9.09133e-08
9.48011e-09
-9.36689e-08
9.33745e-09
-9.6378e-08
9.18022e-09
-9.90365e-08
9.00882e-09
-1.0164e-07
8.82367e-09
-1.04185e-07
8.6252e-09
-1.06668e-07
8.41381e-09
-1.09085e-07
8.18995e-09
-1.11432e-07
7.95404e-09
-1.13706e-07
7.70651e-09
-1.15903e-07
7.44781e-09
-1.18021e-07
7.17835e-09
-1.20057e-07
6.8986e-09
-1.22007e-07
6.60899e-09
-1.23868e-07
6.30997e-09
-1.25639e-07
6.00199e-09
-1.27316e-07
5.6855e-09
-1.28897e-07
5.36096e-09
-1.30381e-07
5.02883e-09
-1.31764e-07
4.68956e-09
-1.33044e-07
4.34362e-09
-1.34221e-07
3.99149e-09
-1.35293e-07
3.63362e-09
-1.36257e-07
3.27051e-09
-1.37112e-07
2.90262e-09
-1.37857e-07
2.53044e-09
-1.38492e-07
2.15445e-09
-1.39014e-07
1.77515e-09
-1.39424e-07
1.39303e-09
-1.3972e-07
1.00859e-09
-1.39903e-07
6.22324e-10
-1.3997e-07
2.34749e-10
-1.39924e-07
-1.53627e-10
-1.39762e-07
-5.42289e-10
-1.39486e-07
-9.30719e-10
-1.39095e-07
-1.31839e-09
-1.38591e-07
-1.70479e-09
-1.37973e-07
-2.08937e-09
-1.37242e-07
-2.4716e-09
-1.364e-07
-2.85095e-09
-1.35446e-07
-3.22687e-09
-1.34383e-07
-3.59882e-09
-1.33212e-07
-3.96625e-09
-1.31934e-07
-4.32861e-09
-1.30551e-07
-4.68536e-09
-1.29064e-07
-5.03593e-09
-1.27476e-07
-5.37978e-09
-1.25789e-07
-5.71634e-09
-1.24005e-07
-6.04507e-09
-1.22127e-07
-6.3654e-09
-1.20157e-07
-6.67679e-09
-1.18098e-07
-6.97867e-09
-1.15953e-07
-7.27049e-09
-1.13726e-07
-7.55171e-09
-1.11418e-07
-7.82179e-09
-1.09035e-07
-8.08017e-09
-1.0658e-07
-8.32632e-09
-1.04055e-07
-8.55971e-09
-1.01466e-07
-8.77981e-09
-9.88166e-08
-8.98612e-09
-9.61102e-08
-9.17811e-09
-9.33518e-08
-9.35528e-09
-9.05456e-08
-9.51716e-09
-8.76964e-08
-9.66326e-09
-8.48089e-08
-9.79311e-09
-8.18881e-08
-9.90627e-09
-7.89389e-08
-1.00023e-08
-7.59664e-08
-1.00808e-08
-7.2976e-08
-1.01413e-08
-6.99729e-08
-1.01834e-08
-6.69627e-08
-1.02069e-08
-6.39508e-08
-1.02113e-08
-6.0943e-08
-1.01963e-08
-5.7945e-08
-1.01617e-08
-5.49624e-08
-1.01072e-08
-5.20013e-08
-1.00325e-08
-4.90675e-08
-9.93739e-09
-4.61669e-08
-9.82177e-09
-4.33055e-08
-9.68547e-09
-4.04894e-08
-9.52841e-09
-3.77244e-08
-9.35053e-09
-3.50166e-08
-9.15183e-09
-3.23719e-08
-8.93235e-09
-2.97962e-08
-8.69222e-09
-2.72954e-08
-8.43159e-09
-2.48752e-08
-8.15072e-09
-2.25412e-08
-7.84991e-09
-2.0299e-08
-7.5296e-09
-1.81537e-08
-7.19028e-09
-1.61106e-08
-6.83258e-09
-1.41746e-08
-6.45727e-09
-1.235e-08
-6.06525e-09
-1.06413e-08
-5.65761e-09
-9.05227e-09
-5.23564e-09
-7.58618e-09
-4.80088e-09
-6.24589e-09
-4.35514e-09
-5.03357e-09
-3.90058e-09
-3.95065e-09
-3.43976e-09
-2.99769e-09
-2.97571e-09
-2.17428e-09
-2.51204e-09
-1.47883e-09
-2.05306e-09
-9.08404e-10
-1.60391e-09
-4.58547e-10
-1.1707e-09
-1.23033e-10
-7.60781e-10
1.06366e-10
-3.82889e-10
2.40153e-10
-4.74388e-11
2.91383e-10
2.33245e-10
2.76e-10
4.4467e-10
2.13263e-10
5.6997e-10
1.2635e-10
5.89877e-10
4.33923e-11
4.82702e-10
2.22675e-10
2.99273e-11
-2.48643e-10
7.6486e-11
-5.09237e-10
1.05406e-10
-5.78006e-10
8.89715e-11
-4.89701e-10
4.26997e-12
-2.72521e-10
-1.67664e-10
4.90885e-11
-4.4244e-10
4.54027e-10
-8.32735e-10
9.24272e-10
-1.34863e-09
1.44451e-09
-1.99792e-09
2.00178e-09
-2.78631e-09
2.58515e-09
-3.71774e-09
3.18543e-09
-4.79452e-09
3.79493e-09
-6.01757e-09
4.4072e-09
-7.38661e-09
5.01682e-09
-8.90032e-09
5.61929e-09
-1.05564e-08
6.21081e-09
-1.2352e-08
6.78825e-09
-1.42833e-08
7.34898e-09
-1.6346e-08
7.8908e-09
-1.85356e-08
8.41193e-09
-2.08468e-08
8.91086e-09
-2.32741e-08
9.38639e-09
-2.58119e-08
9.83753e-09
-2.84542e-08
1.02635e-08
-3.11948e-08
1.06637e-08
-3.40273e-08
1.10376e-08
-3.69454e-08
1.1385e-08
-3.99426e-08
1.17056e-08
-4.30122e-08
1.19992e-08
-4.61477e-08
1.22659e-08
-4.93424e-08
1.25057e-08
-5.25898e-08
1.27186e-08
-5.58831e-08
1.29049e-08
-5.92159e-08
1.30646e-08
-6.25817e-08
1.31982e-08
-6.59739e-08
1.33058e-08
-6.93862e-08
1.33879e-08
-7.28123e-08
1.34446e-08
-7.62458e-08
1.34765e-08
-7.96808e-08
1.3484e-08
-8.31111e-08
1.34674e-08
-8.65308e-08
1.34272e-08
-8.9934e-08
1.33639e-08
-9.33151e-08
1.3278e-08
-9.66684e-08
1.31699e-08
-9.99886e-08
1.30402e-08
-1.0327e-07
1.28893e-08
-1.06508e-07
1.27179e-08
-1.09697e-07
1.25263e-08
-1.12832e-07
1.23152e-08
-1.15908e-07
1.20852e-08
-1.18921e-07
1.18367e-08
-1.21866e-07
1.15703e-08
-1.24739e-07
1.12866e-08
-1.27535e-07
1.09862e-08
-1.30251e-07
1.06697e-08
-1.32882e-07
1.03375e-08
-1.35424e-07
9.99034e-09
-1.37875e-07
9.62877e-09
-1.4023e-07
9.25338e-09
-1.42485e-07
8.86476e-09
-1.44639e-07
8.46352e-09
-1.46687e-07
8.05025e-09
-1.48627e-07
7.62557e-09
-1.50456e-07
7.19008e-09
-1.52172e-07
6.74441e-09
-1.53772e-07
6.28917e-09
-1.55253e-07
5.82499e-09
-1.56614e-07
5.3525e-09
-1.57853e-07
4.87233e-09
-1.58967e-07
4.38512e-09
-1.59956e-07
3.89151e-09
-1.60818e-07
3.39215e-09
-1.61551e-07
2.8877e-09
-1.62155e-07
2.37882e-09
-1.62628e-07
1.86616e-09
-1.6297e-07
1.35041e-09
-1.6318e-07
8.32227e-10
-1.63257e-07
3.12302e-10
-1.63202e-07
-2.0868e-10
-1.63015e-07
-7.30028e-10
-1.62694e-07
-1.25105e-09
-1.62242e-07
-1.77103e-09
-1.61657e-07
-2.28928e-09
-1.60941e-07
-2.80507e-09
-1.60095e-07
-3.31769e-09
-1.5912e-07
-3.82642e-09
-1.58016e-07
-4.33054e-09
-1.56786e-07
-4.8293e-09
-1.5543e-07
-5.32199e-09
-1.53951e-07
-5.80786e-09
-1.5235e-07
-6.28618e-09
-1.5063e-07
-6.7562e-09
-1.48792e-07
-7.21718e-09
-1.4684e-07
-7.66837e-09
-1.44776e-07
-8.10905e-09
-1.42603e-07
-8.53845e-09
-1.40324e-07
-8.95584e-09
-1.37942e-07
-9.36048e-09
-1.35461e-07
-9.75163e-09
-1.32884e-07
-1.01286e-08
-1.30216e-07
-1.04905e-08
-1.27459e-07
-1.08368e-08
-1.24618e-07
-1.11668e-08
-1.21699e-07
-1.14796e-08
-1.18704e-07
-1.17746e-08
-1.15639e-07
-1.20511e-08
-1.12508e-07
-1.23085e-08
-1.09318e-07
-1.2546e-08
-1.06072e-07
-1.27631e-08
-1.02776e-07
-1.2959e-08
-9.94358e-08
-1.31332e-08
-9.60569e-08
-1.32851e-08
-9.26451e-08
-1.34141e-08
-8.92062e-08
-1.35196e-08
-8.57463e-08
-1.36012e-08
-8.22715e-08
-1.36582e-08
-7.87882e-08
-1.36903e-08
-7.53026e-08
-1.36969e-08
-7.18213e-08
-1.36777e-08
-6.83507e-08
-1.36323e-08
-6.48976e-08
-1.35603e-08
-6.14687e-08
-1.34614e-08
-5.80706e-08
-1.33355e-08
-5.47102e-08
-1.31822e-08
-5.13943e-08
-1.30014e-08
-4.81297e-08
-1.2793e-08
-4.49233e-08
-1.2557e-08
-4.17818e-08
-1.22933e-08
-3.8712e-08
-1.20021e-08
-3.57206e-08
-1.16836e-08
-3.28143e-08
-1.13379e-08
-2.99994e-08
-1.09656e-08
-2.72824e-08
-1.05669e-08
-2.46695e-08
-1.01425e-08
-2.21666e-08
-9.69321e-09
-1.97794e-08
-9.21978e-09
-1.75133e-08
-8.72331e-09
-1.53735e-08
-8.20504e-09
-1.33647e-08
-7.66647e-09
-1.1491e-08
-7.10936e-09
-9.75606e-09
-6.53577e-09
-8.16305e-09
-5.94815e-09
-6.71427e-09
-5.34937e-09
-5.41123e-09
-4.74281e-09
-4.25449e-09
-4.13244e-09
-3.24356e-09
-3.52298e-09
-2.37669e-09
-2.91994e-09
-1.65072e-09
-2.32988e-09
-1.0609e-09
-1.76051e-09
-6.007e-10
-1.22098e-09
-2.61554e-10
-7.22033e-10
-3.26508e-11
-2.76339e-10
9.9339e-11
1.01258e-10
1.5057e-10
3.93432e-10
1.40466e-10
5.80072e-10
9.2273e-11
6.38074e-10
3.39512e-11
5.41022e-10
2.56624e-10
1.72182e-11
-2.65854e-10
3.04895e-11
-5.2251e-10
8.07642e-12
-5.55592e-10
-7.63918e-11
-4.05229e-10
-2.45017e-10
-1.03898e-10
-5.16256e-10
3.20319e-10
-9.05399e-10
8.43161e-10
-1.42495e-09
1.44382e-09
-2.08492e-09
2.10448e-09
-2.89307e-09
2.80993e-09
-3.85517e-09
3.54724e-09
-4.97516e-09
4.30542e-09
-6.25538e-09
5.07515e-09
-7.69676e-09
5.84857e-09
-9.29894e-09
6.619e-09
-1.10605e-08
7.38084e-09
-1.2979e-08
8.12934e-09
-1.50513e-08
8.86051e-09
-1.72733e-08
9.57101e-09
-1.96405e-08
1.0258e-08
-2.21478e-08
1.09192e-08
-2.47896e-08
1.15527e-08
-2.756e-08
1.21567e-08
-3.04525e-08
1.27301e-08
-3.34608e-08
1.32718e-08
-3.65781e-08
1.37809e-08
-3.97973e-08
1.42569e-08
-4.31114e-08
1.46991e-08
-4.65132e-08
1.51074e-08
-4.99954e-08
1.54814e-08
-5.35507e-08
1.58212e-08
-5.71717e-08
1.61267e-08
-6.0851e-08
1.6398e-08
-6.45814e-08
1.66352e-08
-6.83555e-08
1.68387e-08
-7.2166e-08
1.70087e-08
-7.60056e-08
1.71455e-08
-7.98673e-08
1.72495e-08
-8.3744e-08
1.73213e-08
-8.76286e-08
1.73612e-08
-9.15143e-08
1.73697e-08
-9.53943e-08
1.73474e-08
-9.9262e-08
1.72949e-08
-1.03111e-07
1.72127e-08
-1.06934e-07
1.71014e-08
-1.10726e-07
1.69617e-08
-1.1448e-07
1.67942e-08
-1.1819e-07
1.65995e-08
-1.21851e-07
1.63783e-08
-1.25456e-07
1.61314e-08
-1.29e-07
1.58593e-08