/*--------------------------------*- C++ -*----------------------------------*\
  =========                 |
  \\      /  F ield         | OpenFOAM: The Open Source CFD Toolbox
   \\    /   O peration     | Website:  https://openfoam.org
    \\  /    A nd           | Version:  7
     \\/     M anipulation  |
\*---------------------------------------------------------------------------*/
FoamFile
{
    version     2.0;
    format      ascii;
    class       volVectorField;
    location    "0.3375";
    object      U;
}
// * * * * * * * * * * * * * * * * * * * * * * * * * * * * * * * * * * * * * //

dimensions      [0 1 -1 0 0 0 0];

internalField   nonuniform List<vector> 
25600
(
(1.71208e-07 -2.13517e-07 0)
(2.8275e-06 -1.80167e-06 0)
(9.07206e-06 -2.8352e-06 0)
(1.69278e-05 -3.20739e-06 0)
(2.48852e-05 -3.12413e-06 0)
(3.19998e-05 -2.74562e-06 0)
(3.76205e-05 -2.18021e-06 0)
(4.12964e-05 -1.4997e-06 0)
(4.2727e-05 -7.50057e-07 0)
(4.17197e-05 3.88187e-08 0)
(3.81573e-05 8.46273e-07 0)
(3.19774e-05 1.65794e-06 0)
(2.31587e-05 2.46396e-06 0)
(1.17113e-05 3.25728e-06 0)
(-2.33209e-06 4.03243e-06 0)
(-1.89207e-05 4.7853e-06 0)
(-3.79893e-05 5.51292e-06 0)
(-5.94615e-05 6.21318e-06 0)
(-8.32522e-05 6.88451e-06 0)
(-0.00010927 7.52568e-06 0)
(-0.000137419 8.13578e-06 0)
(-0.000167599 8.71415e-06 0)
(-0.000199706 9.26044e-06 0)
(-0.000233635 9.77449e-06 0)
(-0.00026928 1.02563e-05 0)
(-0.000306532 1.07058e-05 0)
(-0.000345284 1.11231e-05 0)
(-0.000385428 1.15085e-05 0)
(-0.000426854 1.18622e-05 0)
(-0.000469457 1.21847e-05 0)
(-0.00051313 1.24763e-05 0)
(-0.000557767 1.27373e-05 0)
(-0.000603264 1.29682e-05 0)
(-0.000649517 1.31695e-05 0)
(-0.000696425 1.33417e-05 0)
(-0.000743888 1.34854e-05 0)
(-0.000791806 1.36009e-05 0)
(-0.000840083 1.3689e-05 0)
(-0.000888623 1.37502e-05 0)
(-0.000937333 1.3785e-05 0)
(-0.000986122 1.37939e-05 0)
(-0.0010349 1.37776e-05 0)
(-0.00108358 1.37366e-05 0)
(-0.00113207 1.36716e-05 0)
(-0.00118029 1.35831e-05 0)
(-0.00122816 1.34717e-05 0)
(-0.00127561 1.3338e-05 0)
(-0.00132254 1.31826e-05 0)
(-0.00136888 1.30062e-05 0)
(-0.00141457 1.28092e-05 0)
(-0.00145953 1.25924e-05 0)
(-0.00150369 1.23562e-05 0)
(-0.00154698 1.21014e-05 0)
(-0.00158934 1.18284e-05 0)
(-0.00163071 1.15379e-05 0)
(-0.00167101 1.12304e-05 0)
(-0.0017102 1.09067e-05 0)
(-0.00174822 1.05672e-05 0)
(-0.00178501 1.02127e-05 0)
(-0.00182051 9.84355e-06 0)
(-0.00185469 9.46052e-06 0)
(-0.00188748 9.06415e-06 0)
(-0.00191885 8.65504e-06 0)
(-0.00194875 8.23382e-06 0)
(-0.00197713 7.80108e-06 0)
(-0.00200396 7.35743e-06 0)
(-0.0020292 6.90348e-06 0)
(-0.00205281 6.43982e-06 0)
(-0.00207477 5.96709e-06 0)
(-0.00209503 5.48592e-06 0)
(-0.00211357 4.99694e-06 0)
(-0.00213037 4.50078e-06 0)
(-0.0021454 3.99805e-06 0)
(-0.00215863 3.4894e-06 0)
(-0.00217005 2.97546e-06 0)
(-0.00217964 2.45689e-06 0)
(-0.00218739 1.93436e-06 0)
(-0.00219328 1.40852e-06 0)
(-0.0021973 8.80042e-07 0)
(-0.00219944 3.49607e-07 0)
(-0.00219971 -1.82104e-07 0)
(-0.00219809 -7.14403e-07 0)
(-0.00219458 -1.24659e-06 0)
(-0.00218919 -1.77798e-06 0)
(-0.00218192 -2.30784e-06 0)
(-0.00217277 -2.83546e-06 0)
(-0.00216177 -3.36012e-06 0)
(-0.00214891 -3.8811e-06 0)
(-0.00213422 -4.39766e-06 0)
(-0.00211771 -4.90906e-06 0)
(-0.00209941 -5.41455e-06 0)
(-0.00207932 -5.91339e-06 0)
(-0.00205749 -6.40479e-06 0)
(-0.00203393 -6.88801e-06 0)
(-0.00200868 -7.36228e-06 0)
(-0.00198177 -7.82682e-06 0)
(-0.00195324 -8.28087e-06 0)
(-0.00192313 -8.72366e-06 0)
(-0.00189148 -9.1544e-06 0)
(-0.00185832 -9.57231e-06 0)
(-0.00182372 -9.97661e-06 0)
(-0.00178771 -1.03665e-05 0)
(-0.00175036 -1.07413e-05 0)
(-0.00171172 -1.11001e-05 0)
(-0.00167184 -1.14422e-05 0)
(-0.00163078 -1.17669e-05 0)
(-0.00158862 -1.20733e-05 0)
(-0.00154541 -1.23608e-05 0)
(-0.00150122 -1.26285e-05 0)
(-0.00145612 -1.28758e-05 0)
(-0.0014102 -1.31019e-05 0)
(-0.00136352 -1.33061e-05 0)
(-0.00131616 -1.34877e-05 0)
(-0.0012682 -1.36459e-05 0)
(-0.00121974 -1.37802e-05 0)
(-0.00117084 -1.38899e-05 0)
(-0.0011216 -1.39743e-05 0)
(-0.00107212 -1.40329e-05 0)
(-0.00102247 -1.40649e-05 0)
(-0.000972764 -1.40699e-05 0)
(-0.000923086 -1.40473e-05 0)
(-0.000873538 -1.39965e-05 0)
(-0.000824217 -1.3917e-05 0)
(-0.000775226 -1.38085e-05 0)
(-0.000726665 -1.36703e-05 0)
(-0.000678639 -1.35022e-05 0)
(-0.000631252 -1.33037e-05 0)
(-0.00058461 -1.30745e-05 0)
(-0.00053882 -1.28143e-05 0)
(-0.000493989 -1.25229e-05 0)
(-0.000450225 -1.22e-05 0)
(-0.000407635 -1.18455e-05 0)
(-0.000366328 -1.14592e-05 0)
(-0.000326413 -1.10412e-05 0)
(-0.000287996 -1.05915e-05 0)
(-0.000251184 -1.01102e-05 0)
(-0.000216083 -9.5974e-06 0)
(-0.000182797 -9.05355e-06 0)
(-0.000151427 -8.47903e-06 0)
(-0.000122073 -7.87447e-06 0)
(-9.48305e-05 -7.24066e-06 0)
(-6.97916e-05 -6.57861e-06 0)
(-4.70426e-05 -5.88954e-06 0)
(-2.66636e-05 -5.17503e-06 0)
(-8.72672e-06 -4.43713e-06 0)
(6.70558e-06 -3.67856e-06 0)
(1.95831e-05 -2.90273e-06 0)
(2.98709e-05 -2.11403e-06 0)
(3.75539e-05 -1.31817e-06 0)
(4.26411e-05 -5.22862e-07 0)
(4.51737e-05 2.6138e-07 0)
(4.52346e-05 1.01992e-06 0)
(4.29625e-05 1.73196e-06 0)
(3.85717e-05 2.36694e-06 0)
(3.23822e-05 2.87853e-06 0)
(2.48618e-05 3.19625e-06 0)
(1.66769e-05 3.21527e-06 0)
(8.77935e-06 2.77952e-06 0)
(2.6442e-06 1.69651e-06 0)
(1.22528e-07 1.22163e-07 0)
(1.76998e-06 -2.88718e-06 0)
(9.37147e-06 -9.42208e-06 0)
(2.31306e-05 -1.34207e-05 0)
(3.93693e-05 -1.47295e-05 0)
(5.5248e-05 -1.39647e-05 0)
(6.87758e-05 -1.16949e-05 0)
(7.8412e-05 -8.36273e-06 0)
(8.29987e-05 -4.29819e-06 0)
(8.1705e-05 2.58891e-07 0)
(7.39528e-05 5.13413e-06 0)
(5.93582e-05 1.01985e-05 0)
(3.76892e-05 1.53563e-05 0)
(8.83118e-06 2.05357e-05 0)
(-2.72392e-05 2.56815e-05 0)
(-7.04746e-05 3.07507e-05 0)
(-0.000120771 3.57101e-05 0)
(-0.000177977 4.05341e-05 0)
(-0.000241907 4.52029e-05 0)
(-0.000312347 4.97008e-05 0)
(-0.000389059 5.40157e-05 0)
(-0.00047179 5.81379e-05 0)
(-0.00056027 6.20603e-05 0)
(-0.00065422 6.57775e-05 0)
(-0.000753351 6.9286e-05 0)
(-0.000857368 7.25832e-05 0)
(-0.000965974 7.56673e-05 0)
(-0.00107887 7.85376e-05 0)
(-0.00119574 8.11942e-05 0)
(-0.0013163 8.36379e-05 0)
(-0.00144023 8.58698e-05 0)
(-0.00156724 8.78915e-05 0)
(-0.00169702 8.97047e-05 0)
(-0.00182927 9.13118e-05 0)
(-0.00196371 9.27154e-05 0)
(-0.00210004 9.39184e-05 0)
(-0.00223797 9.49238e-05 0)
(-0.00237722 9.57347e-05 0)
(-0.00251751 9.63545e-05 0)
(-0.00265856 9.67866e-05 0)
(-0.00280011 9.70346e-05 0)
(-0.00294189 9.71021e-05 0)
(-0.00308364 9.69929e-05 0)
(-0.0032251 9.67108e-05 0)
(-0.00336603 9.62597e-05 0)
(-0.00350619 9.56436e-05 0)
(-0.00364533 9.48664e-05 0)
(-0.00378322 9.39321e-05 0)
(-0.00391964 9.28448e-05 0)
(-0.00405437 9.16086e-05 0)
(-0.00418718 9.02276e-05 0)
(-0.00431788 8.87057e-05 0)
(-0.00444626 8.70473e-05 0)
(-0.00457212 8.52563e-05 0)
(-0.00469528 8.33371e-05 0)
(-0.00481554 8.12938e-05 0)
(-0.00493273 7.91305e-05 0)
(-0.00504668 7.68514e-05 0)
(-0.00515721 7.44608e-05 0)
(-0.00526418 7.19629e-05 0)
(-0.00536742 6.93619e-05 0)
(-0.00546678 6.66621e-05 0)
(-0.00556213 6.38677e-05 0)
(-0.00565333 6.0983e-05 0)
(-0.00574026 5.80123e-05 0)
(-0.00582278 5.49599e-05 0)
(-0.00590078 5.18302e-05 0)
(-0.00597415 4.86274e-05 0)
(-0.00604279 4.5356e-05 0)
(-0.0061066 4.20204e-05 0)
(-0.00616549 3.86251e-05 0)
(-0.00621937 3.51746e-05 0)
(-0.00626818 3.16732e-05 0)
(-0.00631183 2.81257e-05 0)
(-0.00635026 2.45364e-05 0)
(-0.00638342 2.091e-05 0)
(-0.00641125 1.72513e-05 0)
(-0.00643372 1.35649e-05 0)
(-0.00645078 9.85544e-06 0)
(-0.0064624 6.12781e-06 0)
(-0.00646857 2.38679e-06 0)
(-0.00646926 -1.36273e-06 0)
(-0.00646447 -5.11586e-06 0)
(-0.00645419 -8.86763e-06 0)
(-0.00643844 -1.2613e-05 0)
(-0.00641723 -1.63471e-05 0)
(-0.00639057 -2.00646e-05 0)
(-0.00635849 -2.37606e-05 0)
(-0.00632104 -2.74298e-05 0)
(-0.00627825 -3.1067e-05 0)
(-0.00623017 -3.46671e-05 0)
(-0.00617688 -3.82246e-05 0)
(-0.00611842 -4.17343e-05 0)
(-0.00605487 -4.51909e-05 0)
(-0.00598633 -4.85889e-05 0)
(-0.00591287 -5.1923e-05 0)
(-0.0058346 -5.51877e-05 0)
(-0.00575161 -5.83777e-05 0)
(-0.00566404 -6.14875e-05 0)
(-0.00557199 -6.45116e-05 0)
(-0.00547559 -6.74447e-05 0)
(-0.00537499 -7.02812e-05 0)
(-0.00527033 -7.30158e-05 0)
(-0.00516176 -7.5643e-05 0)
(-0.00504944 -7.81575e-05 0)
(-0.00493354 -8.0554e-05 0)
(-0.00481425 -8.28271e-05 0)
(-0.00469173 -8.49717e-05 0)
(-0.00456619 -8.69824e-05 0)
(-0.00443783 -8.88541e-05 0)
(-0.00430684 -9.05818e-05 0)
(-0.00417344 -9.21605e-05 0)
(-0.00403787 -9.35854e-05 0)
(-0.00390033 -9.48516e-05 0)
(-0.00376107 -9.59544e-05 0)
(-0.00362033 -9.68894e-05 0)
(-0.00347835 -9.7652e-05 0)
(-0.00333539 -9.8238e-05 0)
(-0.00319172 -9.86433e-05 0)
(-0.00304758 -9.88638e-05 0)
(-0.00290327 -9.88958e-05 0)
(-0.00275904 -9.87358e-05 0)
(-0.00261519 -9.83802e-05 0)
(-0.00247199 -9.78259e-05 0)
(-0.00232975 -9.70699e-05 0)
(-0.00218874 -9.61097e-05 0)
(-0.00204928 -9.49426e-05 0)
(-0.00191165 -9.35666e-05 0)
(-0.00177616 -9.19799e-05 0)
(-0.00164312 -9.01811e-05 0)
(-0.00151283 -8.81689e-05 0)
(-0.00138559 -8.59427e-05 0)
(-0.00126173 -8.35023e-05 0)
(-0.00114153 -8.08477e-05 0)
(-0.00102531 -7.79799e-05 0)
(-0.00091336 -7.49003e-05 0)
(-0.000805991 -7.16108e-05 0)
(-0.000703492 -6.81146e-05 0)
(-0.000606152 -6.44154e-05 0)
(-0.00051425 -6.05182e-05 0)
(-0.000428059 -5.64294e-05 0)
(-0.000347836 -5.21568e-05 0)
(-0.000273827 -4.771e-05 0)
(-0.000206259 -4.3101e-05 0)
(-0.000145338 -3.83442e-05 0)
(-9.12435e-05 -3.34582e-05 0)
(-4.41242e-05 -2.84654e-05 0)
(-4.08912e-06 -2.33941e-05 0)
(2.88009e-05 -1.82796e-05 0)
(5.45446e-05 -1.31664e-05 0)
(7.32149e-05 -8.11189e-06 0)
(8.49776e-05 -3.19006e-06 0)
(9.01173e-05 1.50202e-06 0)
(8.90691e-05 5.83543e-06 0)
(8.24611e-05 9.63651e-06 0)
(7.117e-05 1.26686e-05 0)
(5.63883e-05 1.46109e-05 0)
(3.96751e-05 1.50396e-05 0)
(2.30145e-05 1.34163e-05 0)
(9.18255e-06 9.18436e-06 0)
(1.69523e-06 2.64154e-06 0)
(2.8228e-06 -9.09487e-06 0)
(1.34018e-05 -2.31668e-05 0)
(3.10604e-05 -3.10726e-05 0)
(5.08258e-05 -3.31356e-05 0)
(6.91005e-05 -3.04538e-05 0)
(8.33211e-05 -2.41227e-05 0)
(9.14032e-05 -1.50708e-05 0)
(9.17067e-05 -4.04252e-06 0)
(8.29996e-05 8.38181e-06 0)
(6.43867e-05 2.17541e-05 0)
(3.5246e-05 3.57298e-05 0)
(-4.8226e-06 5.00432e-05 0)
(-5.60421e-05 6.44874e-05 0)
(-0.000118493 7.88999e-05 0)
(-0.000192142 9.31524e-05 0)
(-0.000276861 0.000107144 0)
(-0.000372446 0.000120795 0)
(-0.000478634 0.000134042 0)
(-0.000595111 0.000146835 0)
(-0.000721526 0.000159133 0)
(-0.000857494 0.000170905 0)
(-0.00100261 0.000182125 0)
(-0.00115643 0.000192777 0)
(-0.00131852 0.000202844 0)
(-0.00148841 0.000212318 0)
(-0.00166565 0.00022119 0)
(-0.00184975 0.000229456 0)
(-0.00204023 0.000237116 0)
(-0.00223662 0.000244168 0)
(-0.00243843 0.000250615 0)
(-0.00264519 0.000256459 0)
(-0.00285641 0.000261705 0)
(-0.00307161 0.000266359 0)
(-0.00329033 0.000270426 0)
(-0.0035121 0.000273915 0)
(-0.00373645 0.000276832 0)
(-0.00396292 0.000279187 0)
(-0.00419108 0.000280989 0)
(-0.00442046 0.000282246 0)
(-0.00465065 0.00028297 0)
(-0.0048812 0.000283169 0)
(-0.00511171 0.000282854 0)
(-0.00534175 0.000282037 0)
(-0.00557092 0.000280727 0)
(-0.00579884 0.000278937 0)
(-0.0060251 0.000276678 0)
(-0.00624934 0.00027396 0)
(-0.00647119 0.000270796 0)
(-0.00669029 0.000267198 0)
(-0.00690628 0.000263176 0)
(-0.00711884 0.000258743 0)
(-0.00732763 0.000253911 0)
(-0.00753232 0.000248692 0)
(-0.00773261 0.000243098 0)
(-0.0079282 0.000237141 0)
(-0.0081188 0.000230833 0)
(-0.00830412 0.000224187 0)
(-0.00848389 0.000217214 0)
(-0.00865786 0.000209928 0)
(-0.00882576 0.00020234 0)
(-0.00898737 0.000194462 0)
(-0.00914244 0.000186308 0)
(-0.00929076 0.00017789 0)
(-0.00943212 0.00016922 0)
(-0.00956631 0.000160311 0)
(-0.00969315 0.000151176 0)
(-0.00981246 0.000141828 0)
(-0.00992407 0.000132279 0)
(-0.0100278 0.000122542 0)
(-0.0101236 0.000112631 0)
(-0.0102112 0.000102558 0)
(-0.0102905 9.23373e-05 0)
(-0.0103614 8.19816e-05 0)
(-0.0104239 7.15044e-05 0)
(-0.0104777 6.09194e-05 0)
(-0.0105229 5.02401e-05 0)
(-0.0105594 3.94803e-05 0)
(-0.0105871 2.86539e-05 0)
(-0.0106059 1.77749e-05 0)
(-0.0106158 6.85751e-06 0)
(-0.0106169 -4.08404e-06 0)
(-0.010609 -1.50354e-05 0)
(-0.0105922 -2.59819e-05 0)
(-0.0105665 -3.69091e-05 0)
(-0.0105319 -4.78022e-05 0)
(-0.0104884 -5.86462e-05 0)
(-0.0104362 -6.94263e-05 0)
(-0.0103752 -8.01272e-05 0)
(-0.0103055 -9.07337e-05 0)
(-0.0102272 -0.000101231 0)
(-0.0101405 -0.000111602 0)
(-0.0100453 -0.000121834 0)
(-0.00994189 -0.000131908 0)
(-0.00983036 -0.000141812 0)
(-0.00971083 -0.000151527 0)
(-0.00958349 -0.000161039 0)
(-0.0094485 -0.000170332 0)
(-0.00930605 -0.00017939 0)
(-0.00915633 -0.000188197 0)
(-0.00899956 -0.000196738 0)
(-0.00883596 -0.000204996 0)
(-0.00866577 -0.000212956 0)
(-0.00848923 -0.000220603 0)
(-0.00830662 -0.00022792 0)
(-0.0081182 -0.000234892 0)
(-0.00792426 -0.000241505 0)
(-0.0077251 -0.000247742 0)
(-0.00752104 -0.000253588 0)
(-0.00731239 -0.00025903 0)
(-0.00709949 -0.000264051 0)
(-0.00688269 -0.000268639 0)
(-0.00666235 -0.000272779 0)
(-0.00643884 -0.000276456 0)
(-0.00621253 -0.000279659 0)
(-0.00598383 -0.000282373 0)
(-0.00575312 -0.000284587 0)
(-0.00552082 -0.000286288 0)
(-0.00528735 -0.000287463 0)
(-0.00505313 -0.000288103 0)
(-0.00481862 -0.000288196 0)
(-0.00458425 -0.000287733 0)
(-0.00435047 -0.000286703 0)
(-0.00411776 -0.000285099 0)
(-0.00388656 -0.000282911 0)
(-0.00365736 -0.000280133 0)
(-0.00343064 -0.000276759 0)
(-0.00320687 -0.000272783 0)
(-0.00298653 -0.0002682 0)
(-0.00277013 -0.000263006 0)
(-0.00255815 -0.000257201 0)
(-0.00235107 -0.000250782 0)
(-0.00214938 -0.00024375 0)
(-0.00195358 -0.000236107 0)
(-0.00176414 -0.000227856 0)
(-0.00158155 -0.000219004 0)
(-0.00140628 -0.000209559 0)
(-0.00123878 -0.00019953 0)
(-0.00107951 -0.000188932 0)
(-0.000928904 -0.000177781 0)
(-0.000787384 -0.000166098 0)
(-0.000655347 -0.000153909 0)
(-0.000533165 -0.000141246 0)
(-0.000421179 -0.000128147 0)
(-0.000319694 -0.000114659 0)
(-0.00022897 -0.000100839 0)
(-0.000149213 -8.6757e-05 0)
(-8.05628e-05 -7.25002e-05 0)
(-2.30798e-05 -5.81746e-05 0)
(2.32716e-05 -4.39132e-05 0)
(5.8645e-05 -2.98826e-05 0)
(8.33391e-05 -1.62932e-05 0)
(9.78307e-05 -3.41253e-06 0)
(0.000102816 8.41684e-06 0)
(9.92582e-05 1.87536e-05 0)
(8.84519e-05 2.70301e-05 0)
(7.20837e-05 3.25269e-05 0)
(5.22588e-05 3.43611e-05 0)
(3.15241e-05 3.1515e-05 0)
(1.34153e-05 2.30165e-05 0)
(2.77666e-06 8.77324e-06 0)
(3.20572e-06 -1.69362e-05 0)
(1.47481e-05 -3.94181e-05 0)
(3.32023e-05 -5.08528e-05 0)
(5.27084e-05 -5.26061e-05 0)
(6.91599e-05 -4.64189e-05 0)
(7.96443e-05 -3.39664e-05 0)
(8.17488e-05 -1.67068e-05 0)
(7.35235e-05 4.14798e-06 0)
(5.3461e-05 2.76171e-05 0)
(2.04334e-05 5.29174e-05 0)
(-2.63683e-05 7.94279e-05 0)
(-8.74872e-05 0.000106656 0)
(-0.000163247 0.000134209 0)
(-0.000253789 0.000161773 0)
(-0.000359104 0.000189098 0)
(-0.000479058 0.000215983 0)
(-0.000613416 0.000242266 0)
(-0.000761857 0.000267818 0)
(-0.000923995 0.000292535 0)
(-0.00109938 0.000316331 0)
(-0.00128753 0.00033914 0)
(-0.00148791 0.000360909 0)
(-0.00169997 0.000381597 0)
(-0.00192311 0.000401171 0)
(-0.00215673 0.000419608 0)
(-0.00240023 0.00043689 0)
(-0.00265296 0.000453005 0)
(-0.00291429 0.000467948 0)
(-0.00318359 0.000481715 0)
(-0.00346021 0.000494309 0)
(-0.00374349 0.000505731 0)
(-0.00403281 0.000515991 0)
(-0.00432752 0.000525096 0)
(-0.00462697 0.000533057 0)
(-0.00493055 0.000539888 0)
(-0.00523763 0.000545603 0)
(-0.00554758 0.000550216 0)
(-0.00585979 0.000553746 0)
(-0.00617367 0.000556209 0)
(-0.00648863 0.000557623 0)
(-0.00680408 0.00055801 0)
(-0.00711945 0.000557387 0)
(-0.00743417 0.000555776 0)
(-0.0077477 0.000553197 0)
(-0.00805951 0.000549673 0)
(-0.00836906 0.000545224 0)
(-0.00867583 0.000539874 0)
(-0.00897933 0.000533645 0)
(-0.00927907 0.000526559 0)
(-0.00957456 0.000518639 0)
(-0.00986535 0.000509909 0)
(-0.010151 0.000500391 0)
(-0.010431 0.00049011 0)
(-0.010705 0.000479089 0)
(-0.0109726 0.000467352 0)
(-0.0112334 0.000454922 0)
(-0.0114869 0.000441825 0)
(-0.0117328 0.000428083 0)
(-0.0119708 0.000413721 0)
(-0.0122005 0.000398764 0)
(-0.0124216 0.000383236 0)
(-0.0126337 0.000367162 0)
(-0.0128366 0.000350566 0)
(-0.01303 0.000333473 0)
(-0.0132135 0.000315909 0)
(-0.013387 0.000297898 0)
(-0.0135502 0.000279466 0)
(-0.0137029 0.000260638 0)
(-0.0138447 0.000241441 0)
(-0.0139757 0.000221899 0)
(-0.0140954 0.000202038 0)
(-0.0142039 0.000181886 0)
(-0.0143009 0.000161468 0)
(-0.0143862 0.000140811 0)
(-0.0144598 0.000119941 0)
(-0.0145216 9.88863e-05 0)
(-0.0145714 7.76734e-05 0)
(-0.0146091 5.633e-05 0)
(-0.0146348 3.48837e-05 0)
(-0.0146483 1.33625e-05 0)
(-0.0146496 -8.20521e-06 0)
(-0.0146387 -2.97912e-05 0)
(-0.0146156 -5.13666e-05 0)
(-0.0145803 -7.29027e-05 0)
(-0.0145329 -9.43701e-05 0)
(-0.0144733 -0.00011574 0)
(-0.0144017 -0.000136982 0)
(-0.0143182 -0.000158066 0)
(-0.0142227 -0.000178963 0)
(-0.0141156 -0.000199642 0)
(-0.0139968 -0.000220074 0)
(-0.0138665 -0.000240226 0)
(-0.013725 -0.00026007 0)
(-0.0135723 -0.000279573 0)
(-0.0134088 -0.000298705 0)
(-0.0132345 -0.000317434 0)
(-0.0130498 -0.000335731 0)
(-0.0128549 -0.000353563 0)
(-0.0126501 -0.0003709 0)
(-0.0124356 -0.00038771 0)
(-0.0122119 -0.000403963 0)
(-0.0119791 -0.000419628 0)
(-0.0117376 -0.000434674 0)
(-0.0114879 -0.00044907 0)
(-0.0112302 -0.000462786 0)
(-0.010965 -0.000475793 0)
(-0.0106926 -0.00048806 0)
(-0.0104136 -0.000499558 0)
(-0.0101283 -0.000510259 0)
(-0.00983718 -0.000520133 0)
(-0.00954076 -0.000529153 0)
(-0.00923951 -0.000537292 0)
(-0.00893392 -0.000544522 0)
(-0.00862451 -0.000550819 0)
(-0.00831183 -0.000556155 0)
(-0.0079964 -0.000560508 0)
(-0.00767881 -0.000563854 0)
(-0.00735961 -0.00056617 0)
(-0.00703938 -0.000567434 0)
(-0.00671873 -0.000567626 0)
(-0.00639826 -0.000566727 0)
(-0.00607859 -0.00056472 0)
(-0.00576033 -0.000561587 0)
(-0.00544412 -0.000557313 0)
(-0.00513061 -0.000551885 0)
(-0.00482043 -0.000545292 0)
(-0.00451423 -0.000537524 0)
(-0.00421268 -0.000528572 0)
(-0.00391643 -0.000518432 0)
(-0.00362613 -0.0005071 0)
(-0.00334245 -0.000494575 0)
(-0.00306604 -0.000480862 0)
(-0.00279756 -0.000465964 0)
(-0.00253764 -0.000449891 0)
(-0.00228693 -0.000432658 0)
(-0.00204605 -0.000414282 0)
(-0.00181561 -0.000394786 0)
(-0.00159622 -0.0003742 0)
(-0.00138843 -0.000352561 0)
(-0.00119281 -0.000329913 0)
(-0.00100986 -0.000306311 0)
(-0.000840072 -0.000281822 0)
(-0.000683872 -0.000256524 0)
(-0.000541644 -0.000230515 0)
(-0.000413708 -0.000203912 0)
(-0.000300309 -0.000176857 0)
(-0.000201601 -0.000149522 0)
(-0.000117631 -0.000122119 0)
(-4.83193e-05 -9.49064e-05 0)
(6.56763e-06 -6.82042e-05 0)
(4.74477e-05 -4.2409e-05 0)
(7.49588e-05 -1.80141e-05 0)
(9.00016e-05 4.365e-06 0)
(9.37878e-05 2.39598e-05 0)
(8.78975e-05 3.98165e-05 0)
(7.43371e-05 5.07693e-05 0)
(5.55487e-05 5.5435e-05 0)
(3.44352e-05 5.22606e-05 0)
(1.50601e-05 3.96938e-05 0)
(3.21436e-06 1.66707e-05 0)
(3.13304e-06 -2.49152e-05 0)
(1.40408e-05 -5.53642e-05 0)
(3.06644e-05 -6.92036e-05 0)
(4.6764e-05 -6.90923e-05 0)
(5.79539e-05 -5.7545e-05 0)
(6.11031e-05 -3.68635e-05 0)
(5.3603e-05 -9.05491e-06 0)
(3.33175e-05 2.41876e-05 0)
(-1.43541e-06 6.14633e-05 0)
(-5.19401e-05 0.000101628 0)
(-0.00011914 0.000143752 0)
(-0.000203687 0.000187082 0)
(-0.000305986 0.000231005 0)
(-0.000426231 0.000275027 0)
(-0.000564438 0.000318745 0)
(-0.000720475 0.000361832 0)
(-0.000894084 0.000404023 0)
(-0.00108491 0.0004451 0)
(-0.00129249 0.000484887 0)
(-0.00151632 0.000523241 0)
(-0.00175582 0.000560046 0)
(-0.00201035 0.000595211 0)
(-0.00227925 0.000628661 0)
(-0.00256182 0.000660338 0)
(-0.00285731 0.000690199 0)
(-0.003165 0.000718211 0)
(-0.0034841 0.00074435 0)
(-0.00381384 0.000768602 0)
(-0.00415343 0.000790959 0)
(-0.00450209 0.00081142 0)
(-0.00485901 0.000829987 0)
(-0.00522342 0.00084667 0)
(-0.0055945 0.000861481 0)
(-0.00597147 0.000874435 0)
(-0.00635356 0.000885551 0)
(-0.00673998 0.000894851 0)
(-0.00712996 0.000902359 0)
(-0.00752275 0.000908099 0)
(-0.0079176 0.0009121 0)
(-0.00831376 0.000914391 0)
(-0.00871052 0.000915001 0)
(-0.00910715 0.000913963 0)
(-0.00950296 0.000911309 0)
(-0.00989725 0.000907074 0)
(-0.0102894 0.00090129 0)
(-0.0106786 0.000893994 0)
(-0.0110644 0.000885221 0)
(-0.011446 0.000875008 0)
(-0.0118229 0.000863391 0)
(-0.0121945 0.000850407 0)
(-0.0125601 0.000836094 0)
(-0.0129193 0.000820491 0)
(-0.0132714 0.000803635 0)
(-0.0136159 0.000785564 0)
(-0.0139524 0.000766319 0)
(-0.0142802 0.000745938 0)
(-0.014599 0.000724459 0)
(-0.0149082 0.000701924 0)
(-0.0152074 0.000678371 0)
(-0.0154962 0.00065384 0)
(-0.0157742 0.000628372 0)
(-0.0160409 0.000602008 0)
(-0.016296 0.000574787 0)
(-0.016539 0.000546751 0)
(-0.0167698 0.00051794 0)
(-0.0169879 0.000488397 0)
(-0.017193 0.000458162 0)
(-0.0173849 0.000427278 0)
(-0.0175632 0.000395787 0)
(-0.0177277 0.000363732 0)
(-0.0178783 0.000331154 0)
(-0.0180145 0.000298097 0)
(-0.0181364 0.000264605 0)
(-0.0182436 0.000230722 0)
(-0.018336 0.00019649 0)
(-0.0184136 0.000161956 0)
(-0.0184761 0.000127164 0)
(-0.0185234 9.2158e-05 0)
(-0.0185555 5.69849e-05 0)
(-0.0185724 2.16904e-05 0)
(-0.0185739 -1.36791e-05 0)
(-0.0185601 -4.90769e-05 0)
(-0.0185309 -8.44558e-05 0)
(-0.0184864 -0.000119768 0)
(-0.0184267 -0.000154967 0)
(-0.0183517 -0.000190002 0)
(-0.0182615 -0.000224827 0)
(-0.0181564 -0.000259391 0)
(-0.0180363 -0.000293646 0)
(-0.0179014 -0.000327542 0)
(-0.017752 -0.000361029 0)
(-0.0175882 -0.000394057 0)
(-0.0174101 -0.000426576 0)
(-0.0172181 -0.000458535 0)
(-0.0170124 -0.000489884 0)
(-0.0167933 -0.000520571 0)
(-0.016561 -0.000550547 0)
(-0.016316 -0.000579759 0)
(-0.0160585 -0.000608158 0)
(-0.0157888 -0.000635692 0)
(-0.0155075 -0.000662311 0)
(-0.0152149 -0.000687965 0)
(-0.0149113 -0.000712604 0)
(-0.0145974 -0.000736177 0)
(-0.0142735 -0.000758636 0)
(-0.0139402 -0.000779931 0)
(-0.0135979 -0.000800014 0)
(-0.0132472 -0.000818837 0)
(-0.0128886 -0.000836354 0)
(-0.0125228 -0.000852518 0)
(-0.0121502 -0.000867284 0)
(-0.0117716 -0.000880607 0)
(-0.0113876 -0.000892445 0)
(-0.0109988 -0.000902755 0)
(-0.0106058 -0.000911496 0)
(-0.0102094 -0.00091863 0)
(-0.00981025 -0.000924118 0)
(-0.00940907 -0.000927923 0)
(-0.00900658 -0.000930013 0)
(-0.00860354 -0.000930354 0)
(-0.0082007 -0.000928915 0)
(-0.00779882 -0.000925669 0)
(-0.00739867 -0.000920589 0)
(-0.00700106 -0.000913652 0)
(-0.00660677 -0.000904838 0)
(-0.00621661 -0.000894128 0)
(-0.00583138 -0.000881509 0)
(-0.00545189 -0.000866969 0)
(-0.00507897 -0.000850501 0)
(-0.00471342 -0.000832102 0)
(-0.00435605 -0.000811773 0)
(-0.00400768 -0.000789522 0)
(-0.00366911 -0.00076536 0)
(-0.00334113 -0.000739305 0)
(-0.00302452 -0.000711383 0)
(-0.00272005 -0.000681626 0)
(-0.00242846 -0.000650078 0)
(-0.00215047 -0.000616789 0)
(-0.00188679 -0.000581825 0)
(-0.00163806 -0.000545262 0)
(-0.00140491 -0.000507197 0)
(-0.0011879 -0.00046774 0)
(-0.000987546 -0.000427029 0)
(-0.000804297 -0.000385226 0)
(-0.000638515 -0.000342526 0)
(-0.00049047 -0.000299164 0)
(-0.000360324 -0.000255424 0)
(-0.000248108 -0.000211646 0)
(-0.000153699 -0.000168247 0)
(-7.67959e-05 -0.000125729 0)
(-1.6885e-05 -8.47093e-05 0)
(2.67951e-05 -4.59384e-05 0)
(5.52929e-05 -1.03355e-05 0)
(6.999e-05 2.09787e-05 0)
(7.26524e-05 4.66463e-05 0)
(6.54833e-05 6.50421e-05 0)
(5.11328e-05 7.4264e-05 0)
(3.27398e-05 7.21682e-05 0)
(1.46823e-05 5.64722e-05 0)
(3.20277e-06 2.4872e-05 0)
(2.77171e-06 -3.20892e-05 0)
(1.18563e-05 -6.90411e-05 0)
(2.45381e-05 -8.3611e-05 0)
(3.46586e-05 -7.97365e-05 0)
(3.77711e-05 -6.07587e-05 0)
(3.06302e-05 -2.96348e-05 0)
(1.0529e-05 1.10705e-05 0)
(-2.47632e-05 5.91798e-05 0)
(-7.7024e-05 0.000112868 0)
(-0.000147631 0.000170618 0)
(-0.000237613 0.000231176 0)
(-0.000347695 0.000293507 0)
(-0.000478338 0.000356758 0)
(-0.000629773 0.000420231 0)
(-0.000802037 0.000483348 0)
(-0.000994997 0.000545637 0)
(-0.00120838 0.000606707 0)
(-0.00144179 0.000666238 0)
(-0.00169474 0.000723964 0)
(-0.00196664 0.000779671 0)
(-0.00225683 0.000833181 0)
(-0.0025646 0.000884353 0)
(-0.00288919 0.000933071 0)
(-0.00322979 0.000979244 0)
(-0.00358555 0.0010228 0)
(-0.00395562 0.00106368 0)
(-0.0043391 0.00110186 0)
(-0.00473508 0.0011373 0)
(-0.00514265 0.00116998 0)
(-0.00556088 0.00119991 0)
(-0.00598884 0.00122707 0)
(-0.00642561 0.00125149 0)
(-0.00687024 0.00127317 0)
(-0.00732181 0.00129213 0)
(-0.0077794 0.00130841 0)
(-0.00824209 0.00132202 0)
(-0.00870896 0.001333 0)
(-0.00917913 0.0013414 0)
(-0.00965169 0.00134723 0)
(-0.0101258 0.00135056 0)
(-0.0106005 0.00135141 0)
(-0.0110751 0.00134984 0)
(-0.0115487 0.00134589 0)
(-0.0120204 0.00133961 0)
(-0.0124895 0.00133105 0)
(-0.0129551 0.00132026 0)
(-0.0134166 0.00130729 0)
(-0.0138731 0.0012922 0)
(-0.0143239 0.00127503 0)
(-0.0147683 0.00125585 0)
(-0.0152057 0.00123471 0)
(-0.0156353 0.00121167 0)
(-0.0160564 0.00118677 0)
(-0.0164685 0.00116008 0)
(-0.0168709 0.00113166 0)
(-0.017263 0.00110155 0)
(-0.0176442 0.00106983 0)
(-0.018014 0.00103654 0)
(-0.0183719 0.00100175 0)
(-0.0187172 0.000965517 0)
(-0.0190496 0.000927897 0)
(-0.0193686 0.000888952 0)
(-0.0196736 0.000848741 0)
(-0.0199643 0.000807325 0)
(-0.0202402 0.000764765 0)
(-0.0205009 0.000721122 0)
(-0.0207462 0.000676458 0)
(-0.0209756 0.000630835 0)
(-0.0211888 0.000584315 0)
(-0.0213855 0.000536961 0)
(-0.0215654 0.000488836 0)
(-0.0217282 0.000440004 0)
(-0.0218738 0.00039053 0)
(-0.022002 0.000340479 0)
(-0.0221124 0.000289915 0)
(-0.022205 0.000238904 0)
(-0.0222796 0.000187514 0)
(-0.0223361 0.00013581 0)
(-0.0223744 8.38605e-05 0)
(-0.0223944 3.17337e-05 0)
(-0.0223961 -2.0502e-05 0)
(-0.0223794 -7.27774e-05 0)
(-0.0223444 -0.000125023 0)
(-0.0222911 -0.000177168 0)
(-0.0222194 -0.000229141 0)
(-0.0221296 -0.000280873 0)
(-0.0220217 -0.000332289 0)
(-0.0218958 -0.000383319 0)
(-0.0217521 -0.00043389 0)
(-0.0215907 -0.000483928 0)
(-0.0214119 -0.000533359 0)
(-0.0212159 -0.00058211 0)
(-0.0210029 -0.000630106 0)
(-0.0207733 -0.000677274 0)
(-0.0205272 -0.000723537 0)
(-0.0202651 -0.000768823 0)
(-0.0199873 -0.000813054 0)
(-0.0196943 -0.000856158 0)
(-0.0193863 -0.000898058 0)
(-0.0190639 -0.000938681 0)
(-0.0187275 -0.000977951 0)
(-0.0183775 -0.0010158 0)
(-0.0180146 -0.00105214 0)
(-0.0176393 -0.00108691 0)
(-0.017252 -0.00112004 0)
(-0.0168535 -0.00115145 0)
(-0.0164443 -0.00118107 0)
(-0.016025 -0.00120883 0)
(-0.0155963 -0.00123467 0)
(-0.015159 -0.00125851 0)
(-0.0147136 -0.00128029 0)
(-0.014261 -0.00129994 0)
(-0.0138019 -0.00131741 0)
(-0.013337 -0.00133263 0)
(-0.0128672 -0.00134554 0)
(-0.0123932 -0.00135608 0)
(-0.011916 -0.0013642 0)
(-0.0114363 -0.00136985 0)
(-0.010955 -0.00137297 0)
(-0.010473 -0.00137353 0)
(-0.00999123 -0.00137147 0)
(-0.00951054 -0.00136676 0)
(-0.00903186 -0.00135935 0)
(-0.00855613 -0.00134923 0)
(-0.0080843 -0.00133635 0)
(-0.00761731 -0.0013207 0)
(-0.00715611 -0.00130225 0)
(-0.00670167 -0.001281 0)
(-0.00625494 -0.00125692 0)
(-0.00581688 -0.00123003 0)
(-0.00538845 -0.00120032 0)
(-0.00497058 -0.00116782 0)
(-0.00456423 -0.00113253 0)
(-0.00417033 -0.0010945 0)
(-0.00378977 -0.00105375 0)
(-0.00342345 -0.00101036 0)
(-0.00307224 -0.000964372 0)
(-0.00273698 -0.000915883 0)
(-0.00241846 -0.000864987 0)
(-0.00211744 -0.000811806 0)
(-0.00183462 -0.000756483 0)
(-0.00157065 -0.000699191 0)
(-0.00132612 -0.000640134 0)
(-0.00110151 -0.000579556 0)
(-0.000897226 -0.000517747 0)
(-0.000713566 -0.000455054 0)
(-0.000550693 -0.00039189 0)
(-0.000408624 -0.000328748 0)
(-0.000287204 -0.00026622 0)
(-0.000186079 -0.000205018 0)
(-0.000104668 -0.000145997 0)
(-4.21249e-05 -9.0186e-05 0)
(2.6968e-06 -3.88221e-05 0)
(3.12838e-05 6.61095e-06 0)
(4.55106e-05 4.43449e-05 0)
(4.76886e-05 7.22909e-05 0)
(4.05826e-05 8.80153e-05 0)
(2.7467e-05 8.8748e-05 0)
(1.28252e-05 7.14085e-05 0)
(2.89933e-06 3.24424e-05 0)
(2.2283e-06 -3.78162e-05 0)
(8.63164e-06 -7.89405e-05 0)
(1.57418e-05 -9.20333e-05 0)
(1.78329e-05 -8.21696e-05 0)
(1.05846e-05 -5.34968e-05 0)
(-9.26552e-06 -9.62135e-06 0)
(-4.44412e-05 4.63426e-05 0)
(-9.71944e-05 0.000111741 0)
(-0.000169336 0.000184328 0)
(-0.000262282 0.000262214 0)
(-0.000377106 0.000343812 0)
(-0.000514568 0.000427799 0)
(-0.000675161 0.000513072 0)
(-0.000859135 0.00059871 0)
(-0.00106654 0.00068395 0)
(-0.00129723 0.000768155 0)
(-0.00155092 0.000850795 0)
(-0.00182718 0.000931431 0)
(-0.00212549 0.0010097 0)
(-0.00244519 0.00108529 0)
(-0.00278557 0.00115797 0)
(-0.00314584 0.00122753 0)
(-0.00352515 0.0012938 0)
(-0.0039226 0.00135665 0)
(-0.00433725 0.00141598 0)
(-0.00476812 0.0014717 0)
(-0.00521423 0.00152375 0)
(-0.00567454 0.0015721 0)
(-0.00614802 0.0016167 0)
(-0.00663362 0.00165756 0)
(-0.0071303 0.00169465 0)
(-0.00763698 0.001728 0)
(-0.00815261 0.00175762 0)
(-0.00867613 0.00178353 0)
(-0.00920648 0.00180576 0)
(-0.00974263 0.00182434 0)
(-0.0102835 0.00183933 0)
(-0.0108281 0.00185076 0)
(-0.0113755 0.00185869 0)
(-0.0119245 0.00186317 0)
(-0.0124742 0.00186426 0)
(-0.0130237 0.00186202 0)
(-0.0135719 0.00185651 0)
(-0.014118 0.0018478 0)
(-0.0146609 0.00183595 0)
(-0.0151999 0.00182103 0)
(-0.015734 0.00180312 0)
(-0.0162623 0.00178228 0)
(-0.0167841 0.00175858 0)
(-0.0172984 0.00173211 0)
(-0.0178045 0.00170294 0)
(-0.0183016 0.00167114 0)
(-0.018789 0.00163679 0)
(-0.0192658 0.00159997 0)
(-0.0197314 0.00156075 0)
(-0.0201851 0.00151922 0)
(-0.0206262 0.00147545 0)
(-0.0210541 0.00142953 0)
(-0.0214681 0.00138153 0)
(-0.0218677 0.00133155 0)
(-0.0222523 0.00127964 0)
(-0.0226212 0.00122592 0)
(-0.0229741 0.00117044 0)
(-0.0233104 0.0011133 0)
(-0.0236295 0.00105459 0)
(-0.0239312 0.000994377 0)
(-0.0242149 0.000932758 0)
(-0.0244802 0.000869816 0)
(-0.0247267 0.000805638 0)
(-0.0249542 0.000740309 0)
(-0.0251623 0.000673918 0)
(-0.0253506 0.000606553 0)
(-0.0255189 0.000538303 0)
(-0.025667 0.000469257 0)
(-0.0257947 0.000399507 0)
(-0.0259017 0.000329141 0)
(-0.0259879 0.000258254 0)
(-0.0260531 0.000186937 0)
(-0.0260972 0.000115283 0)
(-0.0261203 4.33866e-05 0)
(-0.0261221 -2.86574e-05 0)
(-0.0261026 -0.000100753 0)
(-0.026062 -0.000172805 0)
(-0.0260001 -0.000244715 0)
(-0.0259171 -0.000316387 0)
(-0.0258131 -0.00038772 0)