/*--------------------------------*- C++ -*----------------------------------*\
  =========                 |
  \\      /  F ield         | OpenFOAM: The Open Source CFD Toolbox
   \\    /   O peration     | Website:  https://openfoam.org
    \\  /    A nd           | Version:  7
     \\/     M anipulation  |
\*---------------------------------------------------------------------------*/
FoamFile
{
    version     2.0;
    format      ascii;
    class       volScalarField;
    location    "0.125";
    object      p;
}
// * * * * * * * * * * * * * * * * * * * * * * * * * * * * * * * * * * * * * //

dimensions      [0 2 -2 0 0 0 0];

internalField   nonuniform List<scalar> 
6400
(
1.73714e-07
1.02908e-05
-0.000499895
-0.00154115
-0.00299339
-0.00474336
-0.00668984
-0.00874347
-0.0108273
-0.0128763
-0.0148358
-0.0166601
-0.0183109
-0.0197571
-0.0209728
-0.0219375
-0.0226353
-0.0230543
-0.0231858
-0.0230247
-0.0225686
-0.0218174
-0.0207736
-0.0194417
-0.0178283
-0.0159417
-0.0137915
-0.011389
-0.00874677
-0.0058787
-0.00279972
0.000474165
0.00392601
0.00753799
0.0112915
0.0151672
0.0191451
0.0232047
0.0273247
0.0314839
0.0356606
0.0398328
0.0439784
0.0480751
0.0521008
0.0560334
0.0598511
0.0635328
0.0670574
0.070405
0.0735561
0.0764922
0.079196
0.0816515
0.083844
0.0857607
0.0873906
0.0887242
0.0897545
0.090477
0.0908897
0.0909935
0.0907925
0.0902941
0.0895092
0.0884528
0.0871442
0.0856073
0.0838712
0.0819709
0.079948
0.0778514
0.0757385
0.0736762
0.0717419
0.0700235
0.0686178
0.0676286
0.0671623
0.0671996
-1.17975e-05
-9.57402e-06
-0.000471046
-0.00136326
-0.00258566
-0.00405741
-0.00570256
-0.00744898
-0.00923167
-0.0109937
-0.0126856
-0.0142652
-0.0156966
-0.01695
-0.0180002
-0.0188272
-0.0194148
-0.0197506
-0.0198257
-0.0196341
-0.0191726
-0.0184404
-0.0174388
-0.0161715
-0.0146438
-0.0128629
-0.0108374
-0.00857751
-0.00609459
-0.00340132
-0.000511469
0.00256018
0.00579792
0.00918516
0.0127046
0.0163381
0.020067
0.023872
0.0277333
0.0316309
0.0355447
0.0394539
0.0433379
0.0471758
0.0509469
0.0546308
0.058207
0.0616558
0.064958
0.0680949
0.0710485
0.0738019
0.0763393
0.078646
0.0807089
0.0825165
0.0840589
0.0853281
0.0863182
0.0870256
0.0874493
0.0875911
0.0874556
0.0870507
0.0863874
0.085481
0.0843501
0.083018
0.0815125
0.0798667
0.0781192
0.0763148
0.074505
0.0727481
0.0711092
0.0696594
0.0684715
0.0676201
0.0671983
0.0672367
0.000486669
0.000434287
-2.91894e-05
-0.0008538
-0.00195189
-0.00325931
-0.00471533
-0.00625999
-0.00783803
-0.00939972
-0.0109008
-0.0123032
-0.0135733
-0.0146832
-0.0156091
-0.0163318
-0.0168353
-0.0171075
-0.0171392
-0.0169242
-0.0164589
-0.0157419
-0.014774
-0.013558
-0.0120985
-0.0104019
-0.00847596
-0.00632991
-0.00397434
-0.00142094
0.00131748
0.00422709
0.00729319
0.0105002
0.0138319
0.0172712
0.0208004
0.0244012
0.0280552
0.0317434
0.0354466
0.0391454
0.0428202
0.0464513
0.0500192
0.0535047
0.0568885
0.0601521
0.0632774
0.0662471
0.0690442
0.0716529
0.0740586
0.0762479
0.0782086
0.0799302
0.0814038
0.0826222
0.0835804
0.0842755
0.0847072
0.0848775
0.0847915
0.084457
0.0838854
0.083091
0.0820923
0.0809111
0.0795739
0.0781112
0.0765589
0.0749576
0.0733531
0.0717965
0.0703433
0.0690527
0.0679836
0.0671959
0.0667751
0.0667723
0.00150146
0.0013034
0.000770982
-5.52281e-05
-0.00110887
-0.00233614
-0.00368529
-0.00510615
-0.00655119
-0.00797702
-0.00934478
-0.0106199
-0.0117722
-0.0127755
-0.013608
-0.0142513
-0.0146905
-0.0149139
-0.0149125
-0.01468
-0.0142127
-0.0135089
-0.0125691
-0.0113957
-0.00999274
-0.00836591
-0.00652238
-0.00447069
-0.00222069
0.000216683
0.00282941
0.00560446
0.00852798
0.0115854
0.0147611
0.018039
0.0214022
0.0248336
0.0283155
0.0318299
0.0353586
0.0388831
0.0423847
0.0458449
0.0492451
0.0525669
0.0557922
0.0589034
0.0618835
0.0647159
0.0673847
0.0698751
0.0721733
0.0742666
0.076144
0.0777954
0.0792129
0.0803897
0.0813214
0.0820056
0.0824422
0.0826337
0.0825849
0.0823037
0.0818009
0.0810905
0.0801897
0.0791193
0.0779035
0.0765709
0.075154
0.0736893
0.0722177
0.0707837
0.0694352
0.0682224
0.0671955
0.066406
0.0659217
0.0657863
0.00292676
0.00250582
0.00184796
0.000971125
-8.81187e-05
-0.00128439
-0.00257428
-0.0039156
-0.00526818
-0.00659482
-0.0078615
-0.0090377
-0.0100964
-0.0110141
-0.0117703
-0.0123484
-0.0127344
-0.0129174
-0.0128889
-0.0126426
-0.0121751
-0.0114844
-0.0105709
-0.00943667
-0.00808529
-0.006522
-0.00475347
-0.00278763
-0.000633628
0.00169822
0.00419657
0.00684921
0.00964307
0.0125643
0.0155981
0.0187292
0.0219415
0.0252189
0.0285445
0.0319012
0.0352715
0.0386379
0.0419827
0.0452882
0.0485367
0.0517107
0.0547929
0.0577667
0.060616
0.0633249
0.0658785
0.0682626
0.0704643
0.0724717
0.0742743
0.0758628
0.0772296
0.0783687
0.0792759
0.0799492
0.0803887
0.0805966
0.0805779
0.0803401
0.0798935
0.0792512
0.0784293
0.077447
0.0763266
0.075094
0.0737786
0.072413
0.071033
0.0696771
0.0683864
0.0672031
0.0661702
0.0653313
0.0647273
0.0643805
0.00466471
0.00397119
0.00314518
0.00217729
0.00107127
-0.000135686
-0.00140662
-0.00270684
-0.00400307
-0.00526347
-0.00645865
-0.00756215
-0.00855013
-0.00940163
-0.0100983
-0.010625
-0.0109689
-0.0111199
-0.0110702
-0.0108142
-0.0103482
-0.00967078
-0.00878195
-0.00768356
-0.00637903
-0.0048732
-0.0031723
-0.00128377
0.00078377
0.0030206
0.00541602
0.00795852
0.0106357
0.0134344
0.0163406
0.0193396
0.0224164
0.0255554
0.0287407
0.0319558
0.0351841
0.038409
0.0416134
0.0447806
0.0478936
0.0509356
0.0538904
0.0567419
0.0594749
0.0620741
0.0645253
0.0668152
0.0689314
0.0708628
0.0725991
0.0741317
0.0754534
0.0765585
0.0774432
0.0781055
0.0785455
0.0787655
0.0787699
0.078566
0.0781633
0.077574
0.0768128
0.0758973
0.0748478
0.0736877
0.072443
0.0711426
0.0698177
0.0685014
0.0672282
0.0660334
0.0649539
0.0640262
0.0632599
0.0626511
0.00662636
0.00563172
0.00460759
0.00351715
0.00233011
0.00107743
-0.00020935
-0.00150232
-0.00277418
-0.00399817
-0.00514925
-0.00620458
-0.00714343
-0.00794747
-0.00860059
-0.0090891
-0.00940164
-0.00952908
-0.00946439
-0.00920246
-0.00874009
-0.00807586
-0.00720998
-0.00614416
-0.00488164
-0.00342707
-0.0017863
3.36401e-05
0.00202454
0.00417719
0.00648147
0.00892649
0.0115005
0.0141908
0.016984
0.0198664
0.0228234
0.0258403
0.0289018
0.031992
0.0350953
0.0381956
0.0412767
0.0443224
0.0473165
0.050243
0.0530863
0.0558311
0.0584626
0.0609662
0.0633284
0.0655364
0.0675785
0.0694437
0.0711225
0.0726064
0.0738885
0.0749636
0.0758278
0.0764791
0.0769176
0.0771452
0.0771661
0.0769868
0.0766162
0.0760653
0.0753476
0.0744788
0.0734773
0.0723638
0.0711616
0.0698957
0.068593
0.067282
0.0659914
0.0647503
0.0635906
0.0625427
0.0615842
0.0606842
0.00873295
0.0074233
0.00618182
0.00494534
0.0036512
0.00232505
0.000994026
-0.00031981
-0.00159418
-0.00280711
-0.00393766
-0.00496623
-0.00587512
-0.00664842
-0.00727225
-0.00773467
-0.00802561
-0.00813714
-0.00806303
-0.00779881
-0.00734183
-0.00669092
-0.00584636
-0.00480999
-0.00358501
-0.00217585
-0.000588109
0.00117147
0.00309502
0.00517376
0.00739814
0.00975773
0.0122412
0.0148365
0.0175309
0.0203112
0.0231636
0.0260738
0.0290271
0.0320085
0.0350029
0.0379948
0.0409687
0.043909
0.0468002
0.0496268
0.0523739
0.0550266
0.0575707
0.0599922
0.0622781
0.0644159
0.0663945
0.0682031
0.0698326
0.0712746
0.0725227
0.0735715
0.0744172
0.0750578
0.0754929
0.0757243
0.0757556
0.0755928
0.0752437
0.0747183
0.0740286
0.0731887
0.072215
0.0711258
0.0699415
0.0686837
0.0673756
0.0660413
0.0647046
0.0633892
0.062123
0.0609316
0.0597614
0.0585557
0.0109177
0.00928865
0.00781851
0.00641963
0.00499887
0.00357753
0.00217958
0.000822149
-0.000477164
-0.00170045
-0.00283039
-0.00385058
-0.00474609
-0.00550342
-0.00611064
-0.0065576
-0.00683573
-0.00693814
-0.0068596
-0.00659641
-0.00614634
-0.00550862
-0.00468386
-0.003674
-0.00248221
-0.00111284
0.000428623
0.00213562
0.00400064
0.00601532
0.00817048
0.0104561
0.0128612
0.0153744
0.0179833
0.0206755
0.0234375
0.0262557
0.029116
0.0320038
0.0349046
0.0378036
0.0406858
0.043536
0.0463394
0.049081
0.0517464
0.0543211
0.0567913
0.0591435
0.0613651
0.063444
0.0653693
0.0671305
0.0687186
0.0701256
0.0713448
0.0723711
0.0732005
0.0738307
0.0742612
0.0744932
0.0745298
0.0743763
0.0740394
0.073528
0.0728528
0.0720263
0.0710629
0.0699787
0.0687913
0.0675194
0.0661828
0.0648016
0.0633957
0.0619839
0.0605913
0.0592397
0.0578459
0.0563296
0.0131248
0.0111777
0.00947322
0.00790105
0.00633929
0.00480629
0.00332357
0.00190404
0.000561262
-0.000690271
-0.00183647
-0.00286401
-0.0037604
-0.00451449
-0.00511624
-0.00555708
-0.00583007
-0.00592942
-0.00585081
-0.00559135
-0.0051494
-0.00452466
-0.00371804
-0.0027317
-0.00156886
-0.000233872
0.00126783
0.00292983
0.00474488
0.00670495
0.00880114
0.0110237
0.0133622
0.0158056
0.0183421
0.0209595
0.023645
0.0263854
0.029167
0.031976
0.0347981
0.0376191
0.0404243
0.0431993
0.0459295
0.0486005
0.0511981
0.0537083
0.0561176
0.058413
0.060582
0.0626129
0.0644948
0.0662176
0.0677721
0.0691506
0.0703464
0.0713541
0.0721696
0.0727903
0.0732153
0.0734453
0.073483
0.0733325
0.0729999
0.0724927
0.0718204
0.0709938
0.0700256
0.0689298
0.0677215
0.0664167
0.0650322
0.0635851
0.0620912
0.060566
0.0590321
0.0575087
0.0558851
0.054059
0.0153075
0.0130473
0.0111066
0.009354
0.00764106
0.00598404
0.00440261
0.00290615
0.00150495
0.000210422
-0.000966266
-0.00201442
-0.00292387
-0.0036855
-0.00429129
-0.00473425
-0.00500865
-0.00511002
-0.00503505
-0.00478154
-0.00434851
-0.00373621
-0.00294595
-0.00198004
-0.000841899
0.000464032
0.00193233
0.00355673
0.00533015
0.00724478
0.00929193
0.0114622
0.0137454
0.0161309
0.0186075
0.0211631
0.0237855
0.0264617
0.0291787
0.031923
0.0346808
0.0374381
0.0401808
0.0428948
0.045566
0.0481803
0.0507236
0.0531825
0.0555436
0.0577942
0.0599221
0.0619156
0.063764
0.065457
0.0669858
0.0683425
0.0695203
0.0705135
0.0713178
0.0719303
0.0723496
0.0725759
0.0726112
0.0724588
0.0721236
0.0716123
0.0709328
0.0700947
0.0691089
0.0679874
0.0667432
0.0653899
0.0639417
0.0624129
0.0608165
0.0591645
0.0574784
0.0557755
0.0539195
0.0517879
0.0174265
0.0148598
0.0126832
0.0107463
0.00887521
0.00708495
0.00539409
0.00380917
0.00233752
0.000987873
-0.000231042
-0.00131075
-0.00224347
-0.00302192
-0.00363971
-0.00409155
-0.00437298
-0.00448065
-0.0044122
-0.00416626
-0.00374256
-0.00314188
-0.00236589
-0.0014172
-0.000299454
0.000982734
0.00242394
0.004018
0.00575796
0.00763608
0.00964385
0.0117721
0.0140111
0.0163505
0.0187792
0.0212857
0.0238578
0.0264833
0.0291492
0.0318425
0.0345498
0.0372574
0.0399516
0.0426186
0.0452446
0.0478156
0.050318
0.0527383
0.0550636
0.0572813
0.0593792
0.0613458
0.0631702
0.0648424
0.0663533
0.067695
0.0688603
0.0698435
0.0706398
0.0712458
0.0716598
0.0718815
0.0719119
0.0717535
0.0714103
0.0708879
0.070193
0.0693338
0.0683196
0.0671607
0.0658681
0.0644534
0.0629285
0.0613055
0.0595948
0.0578061
0.0559598
0.0540725
0.0519839
0.0495526
0.0194484
0.0165824
0.0141721
0.0120487
0.0100149
0.00808483
0.00627649
0.00459403
0.0030424
0.00162801
0.000357367
-0.000763101
-0.00172742
-0.00253024
-0.00316676
-0.00363306
-0.00392601
-0.00404333
-0.00398356
-0.00374624
-0.00333182
-0.00274152
-0.00197743
-0.00104256
5.9146e-05
0.00132295
0.00274341
0.00431437
0.00602886
0.00787921
0.0098571
0.0119536
0.0141592
0.0164638
0.0188564
0.0213259
0.0238605
0.0264481
0.0290763
0.0317321
0.0344024
0.037074
0.0397333
0.0423668
0.0449609
0.0475019
0.0499762
0.0523706
0.0546723
0.0568687
0.0589478
0.0608978
0.062708
0.0643681
0.0658691
0.0672027
0.0683615
0.0693394
0.0701313
0.0707333
0.0711432
0.0713599
0.0713838
0.0712166
0.0708612
0.0703221
0.0696051
0.0687169
0.0676655
0.0664595
0.0651082
0.0636214
0.0620094
0.0602821
0.0584481
0.056515
0.0545029
0.0524282
0.0501081
0.0473835
0.0213445
0.0181864
0.0155454
0.0132348
0.0110353
0.00896085
0.00702909
0.00524224
0.00360311
0.00211628
0.000786415
-0.000382112
-0.0013849
-0.00221817
-0.00287879
-0.00336403
-0.00367197
-0.00380137
-0.0037518
-0.00352359
-0.0031178
-0.00253618
-0.00178136
-0.000856747
0.000233473
0.00148442
0.00289053
0.00444554
0.00614247
0.00797372
0.00993113
0.0120059
0.0141888
0.0164695
0.0188377
0.0212822
0.0237916
0.0263542
0.0289575
0.0315889
0.0342355
0.0368843
0.0395221
0.0421355
0.044711
0.0472348
0.0496938
0.0520747
0.0543649
0.0565516
0.0586227
0.0605666
0.0623722
0.0640293
0.0655285
0.0668612
0.0680198
0.0689976
0.0697892
0.0703902
0.0707978
0.0710102
0.0710271
0.0708491
0.0704785
0.0699186
0.0691741
0.0682507
0.0671548
0.0658938
0.0644755
0.0629082
0.0612006
0.0593611
0.0573967
0.0553134
0.0531315
0.0508677
0.0483178
0.0453062
0.0230895
0.0196466
0.016778
0.0142806
0.0119138
0.00969179
0.00763219
0.00573569
0.00400339
0.00243813
0.00104302
-0.000179195
-0.00122583
-0.00209447
-0.00278324
-0.00329075
-0.00361622
-0.00375941
-0.00372081
-0.0035015
-0.00310316
-0.00252817
-0.00177965
-0.000861413
0.000222123
0.00146586
0.00286406
0.00441031
0.0060976
0.00791841
0.00986465
0.0119276
0.0140981
0.016366
0.0187211
0.0211525
0.023649
0.0261988
0.0287899
0.0314098
0.0340458
0.0366851
0.0393145
0.0419208
0.0444906
0.0470102
0.0494664
0.0518462
0.0541368
0.0563253
0.0583996
0.0603477
0.0621586
0.0638219
0.0653277
0.0666671
0.067832
0.0688154
0.0696114
0.0702151
0.070623
0.0708326
0.0708426
0.0706531
0.0702653
0.0696817
0.0689059
0.0679424
0.0667964
0.0654742
0.0639822
0.0623276
0.0605177
0.0585598
0.0564595
0.0542215
0.051867
0.049413
0.0466352
0.0433421
0.0246615
0.0209399
0.0178471
0.0151637
0.0126289
0.0102573
0.00806679
0.00605681
0.00422705
0.00257892
0.00111393
-0.000166435
-0.00126093
-0.00216852
-0.00288848
-0.00342063
-0.00376524
-0.0039231
-0.00389551
-0.00368426
-0.0032917
-0.00272084
-0.00197529
-0.00105921
2.26898e-05
0.00126504
0.00266184
0.00420659
0.00589224
0.00771128
0.00965563
0.0117166
0.0138849
0.0161509
0.0185041
0.0209341
0.0234296
0.0259791
0.0285705
0.0311916
0.0338298
0.0364726
0.0391067
0.0417189
0.0442957
0.0468239
0.04929
0.051681
0.0539839
0.0561858
0.0582743
0.0602373
0.0620636
0.0637424
0.0652635
0.0666175
0.0677958
0.0687911
0.0695967
0.0702075
0.070619
0.070828
0.0708325
0.0706317
0.0702259
0.0696169
0.0688071
0.0677999
0.0665997
0.0652114
0.0636406
0.0618933
0.0599759
0.0578947
0.055654
0.0532581
0.0507287
0.0480839
0.0450801
0.04151
0.0260406
0.0220456
0.0187316
0.0158634
0.0131604
0.0106379
0.00831451
0.00618846
0.00425809
0.00252369
0.00098557
-0.000356159
-0.00150147
-0.00245048
-0.00320366
-0.00376189
-0.00412646
-0.00429909
-0.00428182
-0.00407717
-0.00368822
-0.00311855
-0.00237219
-0.0014537
-0.000368143
0.000878789
0.00228088
0.00383152
0.00552362
0.00734961
0.00930132
0.01137
0.0135465
0.0158212
0.0181839
0.020624
0.0231304
0.0256916
0.0282958
0.0309307
0.0335841
0.0362431
0.0388947
0.0415256
0.0441225
0.0466719
0.0491605
0.051575
0.0539023
0.0561292
0.0582432
0.060232
0.062084
0.063788
0.0653334
0.0667103
0.0679097
0.0689235
0.0697449
0.0703677
0.0707869
0.0709984
0.0709996
0.0707887
0.0703653
0.0697302
0.0688849
0.0678318
0.0665743
0.0651164
0.0634629
0.0616189
0.0595899
0.0573813
0.054997
0.0524403
0.0497344
0.0468983
0.0436697
0.0398262
0.0272086
0.0229448
0.0194121
0.0163601
0.0134893
0.0108153
0.00835761
0.00611362
0.00408059
0.00225764
0.000644053
-0.000761206
-0.00195921
-0.00295116
-0.00373864
-0.00432355
-0.00470809
-0.00489478
-0.00488647
-0.00468643
-0.00429841
-0.00372649
-0.00297513
-0.00204932
-0.000954567
0.000303151
0.00171744
0.00328156
0.00498831
0.00682997
0.00879827
0.0108845
0.0130795
0.0153737
0.0177569
0.0202187
0.0227477
0.0253328
0.027962
0.0306234
0.0333046
0.0359927
0.0386746
0.0413371
0.0439668
0.0465503
0.0490741
0.0515245
0.0538882
0.056152
0.0583031
0.0603288
0.0622172
0.0639565
0.0655356
0.0669441
0.0681727
0.0692127
0.0700564
0.070697
0.0711287
0.0713467
0.0713475
0.0711288
0.0706891
0.0700283
0.069147
0.0680468
0.0667302
0.0652004
0.0634614
0.0615176
0.0593739
0.057035
0.0545042
0.0517846
0.0489006
0.0458727
0.0424199
0.0383051
0.0281488
0.0236195
0.0198703
0.0166356
0.0135972
0.0107715
0.00817882
0.00581578
0.00367874
0.00176583
7.53327e-05
-0.00139469
-0.00264634
-0.00368192
-0.00450399
-0.00511534
-0.00551904
-0.0057184
-0.00571709
-0.00551912
-0.00512877
-0.00455062
-0.00378966
-0.00285136
-0.0017416
-0.000466594
0.000967076
0.00255246
0.00428214
0.00614824
0.00814244
0.010256
0.0124799
0.0148043
0.0172193
0.019714
0.0222775
0.0248984
0.0275652
0.0302656
0.0329872
0.0357171
0.0384422
0.0411493
0.0438249
0.0464553
0.0490269
0.0515258
0.0539383
0.0562512
0.0584511
0.0605252
0.0624608
0.0642458
0.0658686
0.0673183
0.0685848
0.069659
0.0705322
0.0711971
0.0716469
0.0718762
0.0718808
0.0716573
0.0712036
0.0705185
0.0696019
0.0684544
0.0670779
0.0654748
0.0636486
0.0616029
0.059342
0.0568704
0.0541909
0.0513065
0.048243
0.0450223
0.0413453
0.0369601
0.0288448
0.0240527
0.0200886
0.0166721
0.0134665
0.0104891
0.00776117
0.00527853
0.0030367
0.00103314
-0.000734828
-0.00227004
-0.00357556
-0.00465467
-0.00551079
-0.00614757
-0.00656891
-0.00677894
-0.0067821
-0.00658301
-0.00618649
-0.00559771
-0.0048222
-0.00386587
-0.00273491
-0.00143578
2.46789e-05
0.00163924
0.00340026
0.00529973
0.00732931
0.00948025
0.0117433
0.0141088
0.0165664
0.0191056
0.0217153
0.0243844
0.0271009
0.0298528
0.0326275
0.0354121
0.0381934
0.0409581
0.0436926
0.0463829
0.0490151
0.0515752
0.0540493
0.0564236
0.0586845
0.0608187
0.062813
0.0646547
0.0663316
0.0678324
0.0691463
0.0702633
0.0711741
0.0718704
0.0723449
0.0725912
0.0726044
0.0723802
0.0719156
0.0712086
0.0702582
0.0690643
0.0676281
0.0659514
0.0640369
0.061888
0.0595083
0.0569021
0.054072
0.0510209
0.0477763
0.0443617
0.0404598
0.0358038
0.029281
0.0242278
0.02005
0.0164523
0.01308
0.0099511
0.00708785
0.00448543
0.00213871
4.43996e-05
-0.00180096
-0.00340112
-0.00476004
-0.00588181
-0.00677068
-0.00743118
-0.00786802
-0.00808611
-0.00809056
-0.00788655
-0.00747955
-0.00687532
-0.0060799
-0.00509956
-0.00394079
-0.00261039
-0.00111553
0.000536283
0.00233724
0.00427924
0.00635383
0.00855215
0.0108648
0.013282
0.0157935
0.0183887
0.0210566
0.0237859
0.0265646
0.0293805
0.032221
0.0350732
0.0379237
0.0407592
0.0435657
0.0463291
0.0490351
0.0516694
0.054218
0.0566665
0.059001
0.0612074
0.0632722
0.0651821
0.0669243
0.0684868
0.0698581
0.0710273
0.0719843
0.0727202
0.0732266
0.0734966
0.073524
0.0733041
0.0728328
0.0721072
0.0711255
0.069887
0.0683922
0.0666423
0.0646394
0.0623864
0.0598868
0.0571445
0.0541621
0.0509428
0.0475154
0.0439052
0.0397766
0.0348482
0.0294423
0.0241287
0.0197377
0.0159595
0.0124206
0.00914045
0.00614206
0.0034201
0.000968838
-0.00121577
-0.00313792
-0.00480219
-0.00621333
-0.00737618
-0.00829588
-0.00897778
-0.00942737
-0.00965025
-0.00965214
-0.00943891
-0.00901666
-0.00839171
-0.00757053
-0.00655973
-0.0053662
-0.00399713
-0.00246001
-0.000762597
0.00108717
0.00308104
0.00521041
0.00746623
0.009839
0.0123188
0.0148955
0.0175583
0.0202963
0.0230979
0.0259511
0.0288437
0.0317629
0.0346957
0.0376288
0.0405482
0.0434401
0.0462898
0.049083
0.051805
0.0544413
0.0569772
0.059398
0.0616894
0.0638371
0.0658272
0.0676464
0.0692819
0.0707212
0.0719528
0.0729657
0.0737499
0.0742965
0.0745976
0.0746461
0.0744362
0.0739632
0.0732232
0.0722137
0.0709334
0.0693818
0.0675599
0.0654692
0.063112
0.0604918
0.0576124
0.0544763
0.0510869
0.0474747
0.0436667
0.0393091
0.0341052
0.0293134
0.0237394
0.0191354
0.0151766
0.0114714
0.00804017
0.00490701
0.00206609
-0.000489065
-0.0027631
-0.00476093
-0.00648786
-0.00794938
-0.00915119
-0.0100992
-0.0107996
-0.0112585
-0.0114823
-0.0114772
-0.01125
-0.0108072
-0.0101557
-0.00930242
-0.00825432
-0.00701876
-0.00560332
-0.00401579
-0.0022641
-0.000356384
0.00169891
0.00389295
0.00621652
0.00866001
0.0112135
0.0138667
0.0166089
0.0194289
0.0223151
0.0252554
0.0282374
0.0312483
0.0342749
0.0373037
0.0403206
0.0433113
0.0462611
0.0491551
0.0519785
0.0547161
0.0573529
0.0598735
0.062263
0.0645065
0.0665896
0.0684982
0.0702185
0.0717374
0.0730422
0.0741213
0.0749638
0.0755597
0.0759002
0.0759774
0.0757844
0.0753156
0.0745665
0.0735336
0.0722149
0.0706094
0.0687174
0.06654
0.0640791
0.0613381
0.0583208
0.0550297
0.0514682
0.0476691
0.0436607
0.0390706
0.0335871
0.0288789
0.0230438
0.0182262
0.0140866
0.0102153
0.00663322
0.00336577
0.000406603
-0.00225148
-0.00461368
-0.00668556
-0.00847316
-0.00998274
-0.0112208
-0.0121941
-0.0129094
-0.0133736
-0.0135937
-0.0135769
-0.0133303
-0.0128612
-0.0121768
-0.0112845
-0.0101919
-0.00890672
-0.00743685
-0.00579037
-0.00397541
-0.00200037
0.000126061
0.00239483
0.00479659
0.00732164
0.00995999
0.0127013
0.0155346
0.0184487
0.0214318
0.0244717
0.0275561
0.0306718
0.0338057
0.0369437
0.0400716
0.0431749
0.0462386
0.0492476
0.0521864
0.0550394
0.0577909
0.0604252
0.0629265
0.0652796
0.067469
0.06948
0.0712978
0.0729085
0.0742984
0.075455
0.0763664
0.0770217
0.077411
0.0775254
0.0773571
0.0768996
0.0761473
0.0750963
0.0737437
0.0720879
0.0701284
0.0678661
0.0653025
0.0624409
0.0592851
0.0558377
0.0521023
0.0481135
0.0439015
0.0390749
0.0333064
0.0281233
0.0220254
0.0169933
0.0126725
0.00863481
0.00490221
0.00150104
-0.00157553
-0.00433526
-0.00678396
-0.00892785
-0.0107737
-0.0123286
-0.0135997
-0.0145945
-0.0153205
-0.0157854
-0.0159968
-0.0159628
-0.0156909
-0.015189
-0.0144649
-0.0135265
-0.0123817
-0.0110389
-0.00950608
-0.00779172
-0.00590421
-0.00385224
-0.00164473
0.000709068
0.00319969
0.00581735
0.00855194
0.0113929
0.0143293
0.0173497
0.0204422
0.0235946
0.0267943
0.0300282
0.0332826
0.0365435
0.0397964
0.0430264
0.0462183
0.0493565
0.052425
0.0554078
0.0582886
0.0610509
0.0636785
0.0661553
0.0684652
0.0705923
0.0725212
0.0742367
0.0757244
0.0769707
0.0779627
0.0786884
0.0791369
0.0792981
0.0791634
0.078725
0.0779769
0.076914
0.0755328
0.0738309
0.0718074
0.0694625
0.0667978
0.0638161
0.0605215
0.0569166
0.0530052
0.0488239
0.0444046
0.0393365
0.0332763
0.0270302
0.0206675
0.0154194
0.0109167
0.00671235
0.00282933
-0.000704983
-0.00389789
-0.00675771
-0.00929093
-0.0115044
-0.0134057
-0.0150025
-0.0163028
-0.0173148
-0.0180468
-0.0185072
-0.0187045
-0.0186471
-0.0183435
-0.0178019
-0.0170306
-0.0160383
-0.0148334
-0.0134244
-0.0118198
-0.0100283
-0.00805866
-0.00591987
-0.00362109
-0.00117168
0.00141874
0.00414025
0.00698258
0.00993504
0.0129865
0.0161255
0.0193401
0.0226179
0.0259462
0.0293116
0.0327003
0.036098
0.0394899
0.042861
0.0461956
0.0494777
0.0526908
0.0558183
0.0588432
0.0617486
0.0645176
0.067133
0.0695781
0.0718359
0.0738901
0.0757245
0.0773237
0.078673
0.0797583
0.0805665
0.0810855
0.0813043
0.0812129
0.0808029
0.080067
0.0789994
0.0775958
0.075853
0.0737695
0.0713452
0.0685813
0.0654805
0.0620469
0.0582833
0.0541938
0.0498166
0.0451859
0.0398706
0.033511
0.0255832
0.0189528
0.0134869
0.00880115
0.00442963
0.000396262
-0.00327055
-0.00657856
-0.00953674
-0.0121522
-0.0144325
-0.0163858
-0.0180207
-0.0193458
-0.0203701
-0.0211028
-0.021553
-0.0217299
-0.0216426
-0.0213
-0.0207112
-0.0198851
-0.0188308
-0.017557
-0.0160729
-0.0143871
-0.0125089
-0.0104473
-0.0082115
-0.0058109
-0.00325501
-0.000553632
0.00228314
0.00524488
0.00832074
0.0114995
0.0147697
0.0181192
0.0215355
0.0250057
0.0285163
0.0320531
0.0356017
0.0391471
0.0426739
0.0461661
0.0496071
0.05298
0.0562675
0.0594522
0.0625163
0.0654422
0.0682119
0.0708077
0.0732116
0.0754063
0.0773746
0.0791
0.0805665
0.0817589
0.0826628
0.0832649
0.083553
0.0835161
0.0831445
0.0824301
0.081366
0.0799471
0.0781694
0.0760309
0.0735308
0.0706703
0.0674517
0.0638794
0.0599559
0.0556858
0.0511093
0.0462624
0.0406933
0.0340256
0.023765
0.0168632
0.0111773
0.00630715
0.00176776
-0.00241594
-0.00621453
-0.0096363
-0.0126909
-0.015386
-0.0177299
-0.0197314
-0.0213999
-0.0227449
-0.0237762
-0.0245037
-0.0249374
-0.025087
-0.0249624
-0.0245732
-0.0239291
-0.0230398
-0.0219147
-0.020563
-0.0189942
-0.0172177
-0.0152428
-0.0130789
-0.0107356
-0.00822229
-0.00554878
-0.00272507
0.000238573
0.00333155
0.00654296
0.00986153
0.0132756
0.016773
0.0203411
0.0239667
0.0276362
0.0313352
0.0350491
0.0387627
0.0424602
0.0461251
0.0497404
0.0532887
0.0567522
0.0601126
0.0633518
0.0664509
0.0693913
0.0721541
0.0747205
0.0770719
0.07919
0.0810573
0.0826563
0.0839707
0.0849847
0.0856837
0.0860541
0.0860838
0.0857621
0.0850795
0.0840282
0.0826021
0.0807965
0.0786086
0.0760372
0.0730831
0.0697485
0.0660377
0.0619534
0.0575002
0.0527205
0.0476522
0.0418222
0.0348365
0.0215574
0.0143801
0.00847134
0.0034152
-0.00129286
-0.00562696
-0.00955661
-0.0130907
-0.0162394
-0.0190112
-0.021415
-0.0234604
-0.0251576
-0.0265171
-0.0275494
-0.0282652
-0.0286751
-0.0287899
-0.0286201
-0.028176
-0.0274682
-0.0265066
-0.0253013
-0.023862
-0.0221988
-0.0203213
-0.0182393
-0.0159626
-0.0135007
-0.0108635
-0.00806103
-0.00510339
-0.00200107
0.00123523
0.00459453
0.0080655
0.0116363
0.0152948
0.019028
0.0228228
0.0266652
0.0305408
0.0344347
0.0383314
0.0422147
0.0460678
0.0498733
0.0536132
0.057269
0.060822
0.0642529
0.0675423
0.0706705
0.0736175
0.0763635
0.0788888
0.0811739
0.0831998
0.0849479
0.0864004
0.08754
0.0883508
0.088818
0.0889279
0.0886685
0.0880293
0.0870013
0.0855771
0.0837515
0.0815208
0.0788833
0.0758393
0.072391
0.0685423
0.0642961
0.0596572
0.0546702
0.049375
0.0432761
0.0359614
0.0189415
0.0114838
0.00534898
0.00010498
-0.00477274
-0.00925737
-0.0133173
-0.0169619
-0.0202023
-0.0230474
-0.0255069
-0.0275915
-0.029312
-0.0306798
-0.0317064
-0.0324032
-0.0327817
-0.0328535
-0.0326299
-0.0321221
-0.0313411
-0.0302976
-0.0290021
-0.0274651
-0.025697
-0.023708
-0.0215081
-0.0191073
-0.0165157
-0.0137431
-0.0107999
-0.00769653
-0.00444348
-0.00105155
0.00246822
0.00610439
0.00984507
0.0136778
0.0175898
0.0215676
0.0255971
0.0296639
0.0337527
0.0378477
0.0419324
0.0459896
0.0500014
0.0539495
0.0578146
0.0615773
0.0652176
0.068715
0.0720489
0.0751983
0.0781421
0.0808595
0.0833297
0.0855322
0.0874471
0.0890549
0.0903372
0.0912762
0.0918557
0.0920607
0.0918776
0.0912946
0.0903014
0.0888897
0.0870531
0.0847871
0.0820894
0.0789599
0.0754004
0.0714149
0.067006
0.0621788
0.0569801
0.0514519
0.0450755
0.0374199
0.0158972
0.00815367
0.00178921
-0.0036448
-0.00869336
-0.0133286
-0.0175179
-0.0212712
-0.0246003
-0.027515
-0.0300258
-0.0321441
-0.0338819
-0.0352513
-0.0362647
-0.0369345
-0.0372732
-0.0372931
-0.0370064
-0.0364252
-0.0355609
-0.0344251
-0.0330289
-0.0313835
-0.0294996
-0.0273879
-0.0250587
-0.0225223
-0.0197892
-0.0168695
-0.0137737
-0.0105124
-0.00709629
-0.00353618
0.000156799
0.00397113
0.0078948
0.0119153
0.0160198
0.0201946
0.0244258
0.0286984
0.0329972
0.037306
0.0416079
0.0458855
0.0501204
0.0542936
0.0583855
0.0623758
0.0662436
0.0699676
0.0735259
0.0768966
0.0800575
0.0829863
0.0856608
0.0880592
0.0901599
0.0919419
0.0933849
0.09447
0.095179
0.0954953
0.0954039
0.0948914
0.0939461
0.0925584
0.0907208
0.0884281
0.0856772
0.0824673
0.0787999
0.0746788
0.0701066
0.0650885
0.0596735
0.0539059
0.0472426
0.0392331
0.0124034
0.00436815
-0.00223007
-0.00785654
-0.0130772
-0.0178632
-0.0221808
-0.0260406
-0.0294553
-0.0324355
-0.0349925
-0.0371387
-0.038887
-0.0402504
-0.0412425
-0.0418765
-0.0421661
-0.0421244
-0.0417645
-0.0410993
-0.0401409
-0.0389018
-0.0373938
-0.0356285
-0.0336172
-0.031371
-0.0289006
-0.0262167
-0.02333
-0.020251
-0.0169904
-0.0135588
-0.00996699
-0.00622594
-0.00234683
0.00165873
0.00577872
0.0100006
0.0143115
0.0186976
0.0231449
0.0276384
0.0321625
0.0367007
0.0412361
0.0457506
0.0502257
0.0546417
0.0589783
0.0632146
0.0673287
0.0712984
0.0751009
0.078713
0.0821112
0.0852718
0.0881711
0.0907858
0.0930926
0.0950689
0.0966927
0.0979431
0.0988002
0.0992458
0.0992629
0.0988366
0.0979535
0.0966029
0.0947759
0.0924662
0.0896699
0.0863855
0.0826141
0.0783592
0.0736233
0.0684116
0.0627757
0.0567619
0.0498017
0.0414244
0.008438
0.000104346
-0.00673212
-0.0125538
-0.0179479
-0.0228847
-0.0273295
-0.0312936
-0.0347904
-0.0378314
-0.0404289
-0.0425964
-0.0443475
-0.0456967
-0.0466584
-0.0472472
-0.0474775
-0.0473636
-0.0469195
-0.0461588
-0.0450948
-0.0437406
-0.0421087
-0.0402114
-0.0380604
-0.0356673
-0.0330433
-0.0301995
-0.0271468
-0.0238959
-0.0204578
-0.0168431
-0.0130628
-0.00912783
-0.00504953
-0.000839485
0.00349028
0.00792728
0.0124585
0.0170704
0.0217486
0.0264779
0.0312427
0.0360264
0.0408116
0.0455801
0.0503127
0.0549895
0.0595894
0.0640906
0.0684707
0.0727062
0.0767734
0.0806478
0.0843045
0.0877185
0.0908645
0.0937174
0.0962522
0.0984444
0.10027
0.101707
0.102733
0.103327
0.103471
0.103148
0.102344
0.101044
0.0992409
0.0969253
0.0940926
0.0907406
0.0868698
0.0824833
0.0775836
0.072176
0.0663143
0.060047
0.0527793
0.0440192
0.00397742
-0.00466193
-0.0117415
-0.0177613
-0.0233304
-0.0284183
-0.032989
-0.0370547
-0.0406297
-0.0437264
-0.0463581
-0.0485393
-0.050285
-0.0516108
-0.0525322
-0.0530651
-0.053225
-0.0530272
-0.0524867
-0.0516183
-0.0504362
-0.0489542
-0.0471857
-0.0451433
-0.0428396
-0.0402866
-0.037496
-0.0344792
-0.0312475
-0.0278118
-0.0241831
-0.0203723
-0.0163904
-0.0122484
-0.00795768
-0.00352976
0.00102338
0.00568933
0.0104551
0.0153071
0.0202309
0.0252113
0.0302325
0.0352778
0.0403295
0.0453691
0.0503772
0.0553331
0.0602152
0.065001
0.0696672
0.0741894
0.0785427
0.0827013
0.0866391
0.0903293
0.093745
0.0968593
0.0996454
0.102077
0.104128
0.105774
0.10699
0.107754
0.108046
0.107846
0.107137
0.105906
0.10414
0.101831
0.0989721
0.0955604
0.0915956
0.0870806
0.0820175
0.0764116
0.0703191
0.0637909
0.0562044
0.0470453
-0.00100311
-0.00995624
-0.0172845
-0.0235055
-0.0292514
-0.0344906
-0.0391858
-0.0433501
-0.0469988
-0.0501452
-0.0528039
-0.0549906
-0.0567217
-0.0580139
-0.0588841
-0.0593494
-0.0594265
-0.0591321
-0.0584822
-0.0574928
-0.056179
-0.0545555
-0.0526363
-0.0504351
-0.0479648
-0.0452382
-0.0422674
-0.0390641
-0.0356399
-0.0320059
-0.0281732
-0.0241529
-0.019956
-0.0155937
-0.0110771
-0.00641775
-0.0016275
0.00328132
0.0082958
0.0134023
0.0185866
0.0238333
0.0291266
0.0344497
0.0397848
0.0451132
0.0504147
0.0556685
0.0608523
0.0659428
0.070916
0.0757465
0.0804082
0.0848741
0.0891164
0.0931069
0.0968168
0.100217
0.10328
0.105976
0.108277
0.110156
0.111587
0.112544
0.113006
0.112949
0.112357
0.111211
0.109499
0.107211
0.104337
0.100875
0.0968228
0.092183
0.0869573
0.0811509
0.0748227
0.0680257
0.0601083
0.0505332
-0.00652993
-0.0158058
-0.0233887
-0.0298147