/*--------------------------------*- C++ -*----------------------------------*\
  =========                 |
  \\      /  F ield         | OpenFOAM: The Open Source CFD Toolbox
   \\    /   O peration     | Website:  https://openfoam.org
    \\  /    A nd           | Version:  7
     \\/     M anipulation  |
\*---------------------------------------------------------------------------*/
FoamFile
{
    version     2.0;
    format      ascii;
    class       surfaceScalarField;
    location    "0.125";
    object      phi;
}
// * * * * * * * * * * * * * * * * * * * * * * * * * * * * * * * * * * * * * //

dimensions      [0 3 -1 0 0 0 0];

internalField   nonuniform List<scalar> 
12640
(
1.89025e-10
-1.89115e-10
5.56317e-10
-3.67335e-10
8.89128e-10
-3.32792e-10
1.05796e-09
-1.68842e-10
9.99221e-10
5.87295e-11
6.85964e-10
3.13229e-10
1.11892e-10
5.74061e-10
-7.17464e-10
8.29375e-10
-1.78957e-09
1.0721e-09
-3.08774e-09
1.2982e-09
-4.5929e-09
1.50518e-09
-6.28457e-09
1.69164e-09
-8.14149e-09
1.85694e-09
-1.01422e-08
2.00073e-09
-1.22653e-08
2.12304e-09
-1.44894e-08
2.22418e-09
-1.67939e-08
2.30453e-09
-1.91586e-08
2.36459e-09
-2.15636e-08
2.40508e-09
-2.39902e-08
2.42659e-09
-2.642e-08
2.42983e-09
-2.88356e-08
2.41561e-09
-3.12203e-08
2.38469e-09
-3.35581e-08
2.33786e-09
-3.58341e-08
2.27594e-09
-3.80339e-08
2.19977e-09
-4.0144e-08
2.11017e-09
-4.2152e-08
2.00795e-09
-4.4046e-08
1.89397e-09
-4.5815e-08
1.76905e-09
-4.74491e-08
1.63406e-09
-4.89389e-08
1.48983e-09
-5.02761e-08
1.33723e-09
-5.14533e-08
1.17713e-09
-5.24636e-08
1.01038e-09
-5.33015e-08
8.37871e-10
-5.3962e-08
6.60495e-10
-5.44412e-08
4.79181e-10
-5.4736e-08
2.9487e-10
-5.48446e-08
1.08515e-10
-5.47656e-08
-7.89516e-11
-5.44991e-08
-2.66575e-10
-5.40457e-08
-4.53338e-10
-5.34075e-08
-6.38222e-10
-5.25873e-08
-8.20209e-10
-5.1589e-08
-9.98245e-10
-5.04178e-08
-1.17126e-09
-4.90796e-08
-1.33819e-09
-4.75816e-08
-1.49795e-09
-4.59322e-08
-1.64947e-09
-4.41405e-08
-1.79163e-09
-4.22172e-08
-1.92335e-09
-4.01736e-08
-2.04355e-09
-3.80225e-08
-2.15115e-09
-3.57774e-08
-2.24512e-09
-3.34529e-08
-2.32446e-09
-3.10647e-08
-2.38819e-09
-2.86294e-08
-2.43536e-09
-2.61643e-08
-2.46505e-09
-2.36879e-08
-2.47643e-09
-2.12192e-08
-2.46872e-09
-1.87779e-08
-2.44124e-09
-1.63845e-08
-2.3934e-09
-1.40598e-08
-2.32471e-09
-1.1825e-08
-2.23481e-09
-9.70153e-09
-2.12346e-09
-7.71093e-09
-1.99059e-09
-5.8746e-09
-1.83633e-09
-4.21354e-09
-1.66106e-09
-2.74798e-09
-1.46555e-09
-1.49693e-09
-1.25104e-09
-4.77411e-10
-1.01952e-09
2.96628e-10
-7.74034e-10
8.15989e-10
-5.19356e-10
1.07904e-09
-2.63043e-10
1.09644e-09
-1.74024e-11
8.99109e-10
1.97322e-10
5.52522e-10
3.46582e-10
1.83363e-10
3.69154e-10
1.83359e-10
3.59313e-10
-5.48389e-10
8.76143e-10
-8.84198e-10
1.21067e-09
-6.67283e-10
1.13619e-09
-9.4369e-11
5.12771e-10
6.82202e-10
-7.34179e-10
1.56021e-09
-2.63381e-09
2.47373e-09
-5.18475e-09
3.38032e-09
-8.3653e-09
4.25266e-09
-1.21402e-08
5.07311e-09
-1.64654e-08
5.83029e-09
-2.12908e-08
6.51706e-09
-2.65629e-08
7.12905e-09
-3.22261e-08
7.66393e-09
-3.82238e-08
8.12082e-09
-4.44995e-08
8.49981e-09
-5.09968e-08
8.80179e-09
-5.76604e-08
9.02828e-09
-6.44365e-08
9.18112e-09
-7.12725e-08
9.26254e-09
-7.81177e-08
9.27502e-09
-8.49233e-08
9.22119e-09
-9.16425e-08
9.10383e-09
-9.82305e-08
8.92585e-09
-1.04645e-07
8.69026e-09
-1.10845e-07
8.4001e-09
-1.16793e-07
8.05845e-09
-1.22454e-07
7.66846e-09
-1.27793e-07
7.23332e-09
-1.3278e-07
6.75624e-09
-1.37387e-07
6.24043e-09
-1.41586e-07
5.68917e-09
-1.45355e-07
5.10577e-09
-1.48671e-07
4.49356e-09
-1.51517e-07
3.85591e-09
-1.53875e-07
3.19623e-09
-1.55733e-07
2.518e-09
-1.57078e-07
1.82477e-09
-1.57903e-07
1.12013e-09
-1.58203e-07
4.07694e-10
-1.57973e-07
-3.08825e-10
-1.57214e-07
-1.02568e-09
-1.55928e-07
-1.73903e-09
-1.54121e-07
-2.44498e-09
-1.51802e-07
-3.13955e-09
-1.48981e-07
-3.81875e-09
-1.45674e-07
-4.47852e-09
-1.41897e-07
-5.11477e-09
-1.37672e-07
-5.7234e-09
-1.33021e-07
-6.30026e-09
-1.27972e-07
-6.8412e-09
-1.22553e-07
-7.34212e-09
-1.16797e-07
-7.79893e-09
-1.10741e-07
-8.20765e-09
-1.04422e-07
-8.56439e-09
-9.78808e-08
-8.86538e-09
-9.1162e-08
-9.10696e-09
-8.43118e-08
-9.28564e-09
-7.73787e-08
-9.39815e-09
-7.04137e-08
-9.44146e-09
-6.34695e-08
-9.41285e-09
-5.66009e-08
-9.30992e-09
-4.98636e-08
-9.13068e-09
-4.33147e-08
-8.87361e-09
-3.70118e-08
-8.53769e-09
-3.10127e-08
-8.12251e-09
-2.53749e-08
-7.62841e-09
-2.01546e-08
-7.05664e-09
-1.54059e-08
-6.40966e-09
-1.118e-08
-5.69147e-09
-7.52288e-09
-4.90817e-09
-4.47358e-09
-4.06882e-09
-2.06096e-09
-3.18665e-09
-2.99252e-10
-2.28106e-09
8.18433e-10
-1.38072e-09
1.32953e-09
-5.28501e-10
1.31569e-09
2.11164e-10
9.20569e-10
7.41702e-10
3.69169e-10
9.20544e-10
5.52528e-10
3.20063e-10
-8.68434e-10
6.4668e-10
-1.21081e-09
5.92533e-10
-6.13162e-10
-1.04655e-10
6.02845e-10
-1.61773e-09
2.19521e-09
-4.04702e-09
3.98949e-09
-7.43753e-09
5.86421e-09
-1.17934e-08
7.73619e-09
-1.70894e-08
9.54868e-09
-2.32792e-08
1.12628e-08
-3.03014e-08
1.28526e-08
-3.80848e-08
1.43004e-08
-4.65509e-08
1.55952e-08
-5.56172e-08
1.67302e-08
-6.51984e-08
1.7702e-08
-7.52084e-08
1.85098e-08
-8.5561e-08
1.91543e-08
-9.61707e-08
1.9638e-08
-1.06954e-07
1.99642e-08
-1.17828e-07
2.01371e-08
-1.28715e-07
2.01616e-08
-1.39536e-07
2.0043e-08
-1.5022e-07
1.9787e-08
-1.60694e-07
1.93998e-08
-1.70891e-07
1.88877e-08
-1.80748e-07
1.8257e-08
-1.90204e-07
1.75144e-08
-1.99202e-07
1.66666e-08
-2.07689e-07
1.57206e-08
-2.15616e-07
1.46832e-08
-2.22937e-07
1.35615e-08
-2.29611e-07
1.23626e-08
-2.35599e-07
1.10937e-08
-2.40867e-07
9.76201e-09
-2.45386e-07
8.37499e-09
-2.4913e-07
6.9401e-09
-2.52077e-07
5.46495e-09
-2.5421e-07
3.95727e-09
-2.55514e-07
2.42491e-09
-2.55983e-07
8.75822e-10
-2.55609e-07
-6.8192e-10
-2.54395e-07
-2.24008e-09
-2.52344e-07
-3.7903e-09
-2.49465e-07
-5.32407e-09
-2.45771e-07
-6.83278e-09
-2.41282e-07
-8.3077e-09
-2.36021e-07
-9.74004e-09
-2.30015e-07
-1.11209e-08
-2.23297e-07
-1.24414e-08
-2.15904e-07
-1.36927e-08
-2.0788e-07
-1.48657e-08
-1.9927e-07
-1.59516e-08
-1.90128e-07
-1.69417e-08
-1.80508e-07
-1.78274e-08
-1.70472e-07
-1.86005e-08
-1.60084e-07
-1.92527e-08
-1.49415e-07
-1.97765e-08
-1.38536e-07
-2.01644e-08
-1.27525e-07
-2.04097e-08
-1.1646e-07
-2.0506e-08
-1.05425e-07
-2.04477e-08
-9.4505e-08
-2.02301e-08
-8.37864e-08
-1.98493e-08
-7.33576e-08
-1.93024e-08
-6.33073e-08
-1.8588e-08
-5.37241e-08
-1.77057e-08
-4.46952e-08
-1.66573e-08
-3.63053e-08
-1.54466e-08
-2.86349e-08
-1.408e-08
-2.17587e-08
-1.25677e-08
-1.57425e-08
-1.09244e-08
-1.06403e-08
-9.17099e-09
-6.48976e-09
-7.3372e-09
-3.3061e-09
-5.46471e-09
-1.07443e-09
-3.6124e-09
2.60844e-10
-1.86377e-09
8.09377e-10
-3.37373e-10
7.50371e-10
8.007e-10
3.49361e-10
1.32155e-09
9.01892e-10
1.63271e-10
-1.03172e-09
8.69189e-11
-1.13444e-09
-6.0811e-10
8.18898e-11
-2.18495e-09
2.17966e-09
-4.82147e-09
4.83181e-09
-8.62505e-09
7.79305e-09
-1.36457e-08
1.08849e-08
-1.98888e-08
1.39793e-08
-2.73254e-08
1.69853e-08
-3.59006e-08
1.98381e-08
-4.55404e-08
2.24923e-08
-5.61567e-08
2.49168e-08
-6.76519e-08
2.70903e-08
-7.99212e-08
2.89996e-08
-9.28563e-08
3.06371e-08
-1.06346e-07
3.19996e-08
-1.20279e-07
3.30874e-08
-1.34544e-07
3.3903e-08
-1.49032e-07
3.44515e-08
-1.63634e-07
3.47391e-08
-1.78246e-07
3.47736e-08
-1.92766e-07
3.45634e-08
-2.07097e-07
3.41181e-08
-2.21145e-07
3.34476e-08
-2.3482e-07
3.25624e-08
-2.48036e-07
3.14734e-08
-2.60714e-07
3.01918e-08
-2.72776e-07
2.87292e-08
-2.84153e-07
2.70971e-08
-2.94777e-07
2.53076e-08
-3.04588e-07
2.33727e-08
-3.1353e-07
2.13046e-08
-3.21552e-07
1.91159e-08
-3.28609e-07
1.68189e-08
-3.34661e-07
1.44267e-08
-3.39673e-07
1.19519e-08
-3.43616e-07
9.40799e-09
-3.46467e-07
6.80814e-09
-3.48208e-07
4.16597e-09
-3.48827e-07
1.49526e-09
-3.48319e-07
-1.18997e-09
-3.46684e-07
-3.87551e-09
-3.43927e-07
-6.54692e-09
-3.40062e-07
-9.18954e-09
-3.35106e-07
-1.17885e-08
-3.29085e-07
-1.43288e-08
-3.2203e-07
-1.67953e-08
-3.13978e-07
-1.91728e-08
-3.04973e-07
-2.14459e-08
-2.95067e-07
-2.35994e-08
-2.84314e-07
-2.5618e-08
-2.72779e-07
-2.74866e-08
-2.6053e-07
-2.91904e-08
-2.47643e-07
-3.07148e-08
-2.34198e-07
-3.20455e-08
-2.20282e-07
-3.31691e-08
-2.05986e-07
-3.40724e-08
-1.91407e-07
-3.47432e-08
-1.76647e-07
-3.51701e-08
-1.6181e-07
-3.53427e-08
-1.47006e-07
-3.52519e-08
-1.32346e-07
-3.48901e-08
-1.17944e-07
-3.42513e-08
-1.03915e-07
-3.33312e-08
-9.03748e-08
-3.21282e-08
-7.74376e-08
-3.06429e-08
-6.52157e-08
-2.88793e-08
-5.3817e-08
-2.68453e-08
-4.33434e-08
-2.45535e-08
-3.38884e-08
-2.20228e-08
-2.5533e-08
-1.92797e-08
-1.83429e-08
-1.63611e-08
-1.23625e-08
-1.33176e-08
-7.60892e-09
-1.02183e-08
-4.06423e-09
-7.15709e-09
-1.66557e-09
-4.26243e-09
-2.93761e-10
-1.70919e-09
2.39494e-10
2.67442e-10
2.06648e-10
1.3544e-09
1.10854e-09
-5.24651e-11
-9.79268e-10
-6.64936e-10
-5.21941e-10
-2.16901e-09
1.5859e-09
-4.80291e-09
4.81364e-09
-8.73075e-09
8.75959e-09
-1.40522e-08
1.31145e-08
-2.08128e-08
1.76455e-08
-2.90134e-08
2.21799e-08
-3.86189e-08
2.65907e-08
-4.95659e-08
3.0785e-08
-6.1769e-08
3.46955e-08
-7.51266e-08
3.82743e-08
-8.95246e-08
4.14884e-08
-1.04841e-07
4.43156e-08
-1.20946e-07
4.67427e-08
-1.3771e-07
4.87632e-08
-1.54998e-07
5.03756e-08
-1.72678e-07
5.15826e-08
-1.90616e-07
5.23903e-08
-2.08684e-07
5.28071e-08
-2.26754e-07
5.28437e-08
-2.44703e-07
5.25122e-08
-2.62411e-07
5.18264e-08
-2.79765e-07
5.08007e-08
-2.96653e-07
4.94506e-08
-3.12972e-07
4.77923e-08
-3.28623e-07
4.58425e-08
-3.43512e-07
4.36184e-08
-3.57552e-07
4.11376e-08
-3.70663e-07
3.8418e-08
-3.82768e-07
3.54779e-08
-3.93799e-07
3.23358e-08
-4.03694e-07
2.90107e-08
-4.12396e-07
2.55216e-08
-4.19858e-07
2.18879e-08
-4.26035e-07
1.81294e-08
-4.30893e-07
1.4266e-08
-4.34403e-07
1.03182e-08
-4.36544e-07
6.30645e-09
-4.373e-07
2.25186e-09
-4.36666e-07
-1.8243e-09
-4.34641e-07
-5.90041e-09
-4.31233e-07
-9.95454e-09
-4.26459e-07
-1.39644e-08
-4.20339e-07
-1.79076e-08
-4.12907e-07
-2.17613e-08
-4.042e-07
-2.55025e-08
-3.94264e-07
-2.91083e-08
-3.83155e-07
-3.25556e-08
-3.70933e-07
-3.58213e-08
-3.57668e-07
-3.88825e-08
-3.43438e-07
-4.17164e-08
-3.28328e-07
-4.43007e-08
-3.12429e-07
-4.66137e-08
-2.9584e-07
-4.86342e-08
-2.78668e-07
-5.03418e-08
-2.61023e-07
-5.17172e-08
-2.43024e-07
-5.27422e-08
-2.24794e-07
-5.34002e-08
-2.0646e-07
-5.36761e-08
-1.88156e-07
-5.35567e-08
-1.70015e-07
-5.30311e-08
-1.52175e-07
-5.20912e-08
-1.34774e-07
-5.07317e-08
-1.17951e-07
-4.89509e-08
-1.01843e-07
-4.67512e-08
-8.65823e-08
-4.414e-08
-7.2297e-08
-4.11306e-08
-5.91067e-08
-3.77437e-08
-4.71205e-08
-3.4009e-08
-3.64327e-08
-2.99675e-08
-2.7119e-08
-2.56748e-08
-1.92311e-08
-2.12054e-08
-1.27911e-08
-1.66583e-08
-7.78365e-09
-1.21645e-08
-4.14841e-09
-7.89767e-09
-1.77067e-09
-4.08693e-09
-4.71811e-10
-1.03141e-09
1.67474e-12
8.80918e-10
1.11022e-09
-2.95884e-10
-6.83402e-10
-1.52065e-09
7.02843e-10
-3.93864e-09
4.00391e-09
-7.74655e-09
8.62151e-09
-1.30808e-08
1.40939e-08
-2.00228e-08
2.00565e-08
-2.86051e-08
2.62278e-08
-3.88182e-08
3.23931e-08
-5.06176e-08
3.83901e-08
-6.39299e-08
4.40973e-08
-7.86585e-08
4.94241e-08
-9.4689e-08
5.43049e-08
-1.11893e-07
5.86926e-08
-1.30133e-07
6.25554e-08
-1.49263e-07
6.58728e-08
-1.69134e-07
6.8634e-08
-1.89593e-07
7.08351e-08
-2.10489e-07
7.24782e-08
-2.31669e-07
7.35703e-08
-2.52984e-07
7.41219e-08
-2.74287e-07
7.41466e-08
-2.95435e-07
7.36605e-08
-3.16291e-07
7.26818e-08
-3.3672e-07
7.12301e-08
-3.56596e-07
6.93264e-08
-3.75796e-07
6.69929e-08
-3.94206e-07
6.42525e-08
-4.11717e-07
6.11291e-08
-4.28226e-07
5.76469e-08
-4.43639e-07
5.38311e-08
-4.57868e-07
4.97069e-08
-4.70833e-07
4.53004e-08
-4.8246e-07
4.06378e-08
-4.92685e-07
3.5746e-08
-5.01449e-07
3.06521e-08
-5.08703e-07
2.53839e-08
-5.14407e-07
1.99692e-08
-5.18525e-07
1.44368e-08
-5.21034e-07
8.81542e-09
-5.21917e-07
3.13458e-09
-5.21165e-07
-2.57589e-09
-5.1878e-07
-8.28569e-09
-5.1477e-07
-1.39641e-08
-5.09155e-07
-1.958e-08
-5.0196e-07
-2.5102e-08
-4.93223e-07
-3.04982e-08
-4.82989e-07
-3.57367e-08
-4.71312e-07
-4.07854e-08
-4.58256e-07
-4.56121e-08
-4.43892e-07
-5.01848e-08
-4.28303e-07
-5.44715e-08
-4.11579e-07
-5.84408e-08
-3.93818e-07
-6.20617e-08
-3.75127e-07
-6.53042e-08
-3.55622e-07
-6.81391e-08
-3.35426e-07
-7.05382e-08
-3.14668e-07
-7.24752e-08
-2.93485e-07
-7.39252e-08
-2.7202e-07
-7.48655e-08
-2.5042e-07
-7.52759e-08
-2.28838e-07
-7.51387e-08
-2.07429e-07
-7.44399e-08
-1.86351e-07
-7.31688e-08
-1.65764e-07
-7.13193e-08
-1.45824e-07
-6.88903e-08
-1.26689e-07
-6.58865e-08
-1.08509e-07
-6.23198e-08
-9.14298e-08
-5.82101e-08
-7.55861e-08
-5.35875e-08
-6.11009e-08
-4.84942e-08
-4.80809e-08
-4.29875e-08
-3.66123e-08
-3.71434e-08
-2.6756e-08
-3.10618e-08
-1.8542e-08
-2.48723e-08
-1.19638e-08
-1.87428e-08
-6.97158e-09
-1.28899e-08
-3.46607e-09
-7.59243e-09
-1.29199e-09
-3.20548e-09
-2.32371e-10
-1.78698e-10
8.77858e-10
-5.49346e-10
-1.34055e-10
-2.42412e-09
2.57765e-09
-5.81507e-09
7.39482e-09
-1.08678e-08
1.36743e-08
-1.76822e-08
2.09083e-08
-2.63131e-08
2.86875e-08
-3.67737e-08
3.66883e-08
-4.90388e-08
4.46582e-08
-6.30509e-08
5.24022e-08
-7.87243e-08
5.97706e-08
-9.59503e-08
6.66502e-08
-1.14602e-07
7.29565e-08
-1.34538e-07
7.86282e-08
-1.55605e-07
8.36225e-08
-1.77643e-07
8.79112e-08
-2.00487e-07
9.1478e-08
-2.23968e-07
9.43163e-08
-2.47917e-07
9.64272e-08
-2.72165e-07
9.78181e-08
-2.96545e-07
9.85014e-08
-3.20892e-07
9.84939e-08
-3.45047e-07
9.78158e-08
-3.68855e-07
9.64898e-08
-3.92166e-07
9.45412e-08
-4.14837e-07
9.19972e-08
-4.36731e-07
8.88863e-08
-4.57717e-07
8.52386e-08
-4.77673e-07
8.1085e-08
-4.96483e-07
7.64575e-08
-5.14041e-07
7.13891e-08
-5.30247e-07
6.59132e-08
-5.45011e-07
6.00639e-08
-5.58249e-07
5.38762e-08
-5.69889e-07
4.73855e-08
-5.79865e-07
4.06278e-08
-5.8812e-07
3.36396e-08
-5.94609e-07
2.64582e-08
-5.99294e-07
1.91213e-08
-6.02146e-07
1.16674e-08
-6.03147e-07
4.13533e-09
-6.02287e-07
-3.43532e-09
-5.99568e-07
-1.10044e-08
-5.95001e-07
-1.85314e-08
-5.88606e-07
-2.5975e-08
-5.80414e-07
-3.32937e-08
-5.70467e-07
-4.04455e-08
-5.58816e-07
-4.73883e-08
-5.45521e-07
-5.40797e-08
-5.30656e-07
-6.04773e-08
-5.14302e-07
-6.6539e-08
-4.96551e-07
-7.22227e-08
-4.77504e-07
-7.74874e-08
-4.57273e-07
-8.22923e-08
-4.3598e-07
-8.6598e-08
-4.13752e-07
-9.03665e-08
-3.90729e-07
-9.35612e-08
-3.67057e-07
-9.61476e-08
-3.42888e-07
-9.80937e-08
-3.18384e-07
-9.93702e-08
-2.93708e-07
-9.99511e-08
-2.69033e-07
-9.98143e-08
-2.44531e-07
-9.8942e-08
-2.20378e-07
-9.73214e-08
-1.96752e-07
-9.49456e-08
-1.73827e-07
-9.18146e-08
-1.51778e-07
-8.79359e-08
-1.30772e-07
-8.33263e-08
-1.10968e-07
-7.80137e-08
-9.25174e-08
-7.20382e-08
-7.55557e-08
-6.54559e-08
-6.02019e-08
-5.83412e-08
-4.65539e-08
-5.07914e-08
-3.4684e-08
-4.29317e-08
-2.46341e-08
-3.49221e-08
-1.64116e-08
-2.69653e-08
-9.98402e-09
-1.93174e-08
-5.27543e-09
-1.2301e-08
-2.16329e-09
-6.31761e-09
-4.77204e-10
-1.86477e-09
4.0066e-10
-8.02925e-10
6.68884e-10
-3.34108e-09
5.11582e-09
-7.73217e-09
1.17858e-08
-1.40668e-08
2.0009e-08
-2.24033e-08
2.92447e-08
-3.27644e-08
3.90487e-08
-4.51383e-08
4.90622e-08
-5.94804e-08
5.90003e-08
-7.57164e-08
6.86382e-08
-9.37459e-08
7.78002e-08
-1.13447e-07
8.63513e-08
-1.34679e-07
9.41886e-08
-1.57287e-07
1.01237e-07
-1.81106e-07
1.07441e-07
-2.0596e-07
1.12765e-07
-2.31669e-07
1.17188e-07
-2.58051e-07
1.20698e-07
-2.8492e-07
1.23297e-07
-3.12093e-07
1.24991e-07
-3.39386e-07
1.25795e-07
-3.66621e-07
1.25729e-07
-3.93622e-07
1.24817e-07
-4.2022e-07
1.23087e-07
-4.46248e-07
1.2057e-07
-4.71551e-07
1.173e-07
-4.95977e-07
1.13312e-07
-5.19383e-07
1.08645e-07
-5.41634e-07
1.03336e-07
-5.62602e-07
9.74261e-08
-5.8217e-07
9.09571e-08
-6.00228e-07
8.39711e-08
-6.16676e-07
7.65115e-08
-6.31422e-07
6.86225e-08
-6.44386e-07
6.0349e-08
-6.55495e-07
5.17367e-08
-6.64687e-07
4.28322e-08
-6.71912e-07
3.36828e-08
-6.77127e-07
2.43364e-08
-6.80301e-07
1.48419e-08
-6.81415e-07
5.24875e-09
-6.80457e-07
-4.39273e-09
-6.7743e-07
-1.40316e-08
-6.72345e-07
-2.36163e-08
-6.65226e-07
-3.30945e-08
-6.56106e-07
-4.24136e-08
-6.45031e-07
-5.15203e-08
-6.32058e-07
-6.03612e-08
-6.17255e-07
-6.88827e-08
-6.00701e-07
-7.70312e-08
-5.82487e-07
-8.47534e-08
-5.62713e-07
-9.19964e-08
-5.41493e-07
-9.87081e-08
-5.18947e-07
-1.04837e-07
-4.95211e-07
-1.10335e-07
-4.70425e-07
-1.15152e-07
-4.44742e-07
-1.19244e-07
-4.18322e-07
-1.22568e-07
-3.91333e-07
-1.25082e-07
-3.63952e-07
-1.26752e-07
-3.36358e-07
-1.27545e-07
-3.0874e-07
-1.27433e-07
-2.81285e-07
-1.26396e-07
-2.54188e-07
-1.24418e-07
-2.27641e-07
-1.21493e-07
-2.01836e-07
-1.1762e-07
-1.76961e-07
-1.12811e-07
-1.53199e-07
-1.07089e-07
-1.30724e-07
-1.00488e-07
-1.09701e-07
-9.30612e-08
-9.02795e-08
-8.48778e-08
-7.25908e-08
-7.60299e-08
-5.67464e-08
-6.66358e-08
-4.28324e-08
-5.68458e-08
-3.09062e-08
-4.68482e-08
-2.09933e-08
-3.68782e-08
-1.30839e-08
-2.72269e-08
-7.13101e-09
-1.82539e-08
-3.05041e-09
-1.03982e-08
-7.22643e-10
-4.19253e-09
-3.21981e-10
-1.05149e-09
1.72036e-09
-4.25126e-09
8.31561e-09
-9.6484e-09
1.7183e-08
-1.72785e-08
2.76391e-08
-2.71554e-08
3.91216e-08
-3.92666e-08
5.11598e-08
-5.35718e-08
6.33674e-08
-7.0003e-08
7.54316e-08
-8.84666e-08
8.71017e-08
-1.08845e-07
9.81789e-08
-1.31002e-07
1.08508e-07
-1.54781e-07
1.17968e-07
-1.80015e-07
1.2647e-07
-2.06524e-07
1.33949e-07
-2.34119e-07
1.4036e-07
-2.62607e-07
1.45676e-07
-2.91791e-07
1.49882e-07
-3.21473e-07
1.52978e-07
-3.51454e-07
1.54971e-07
-3.81537e-07
1.55878e-07
-4.11529e-07
1.55721e-07
-4.41242e-07
1.5453e-07
-4.70492e-07
1.52337e-07
-4.99101e-07
1.49179e-07
-5.26898e-07
1.45098e-07
-5.53721e-07
1.40136e-07
-5.79415e-07
1.34338e-07
-6.03833e-07
1.27754e-07
-6.26838e-07
1.20431e-07
-6.48301e-07
1.1242e-07
-6.68104e-07
1.03774e-07
-6.86138e-07
9.45455e-08
-7.02305e-07
8.47887e-08
-7.16515e-07
7.45591e-08
-7.28691e-07
6.3913e-08
-7.38766e-07
5.29076e-08
-7.46685e-07
4.16012e-08
-7.52401e-07
3.00529e-08
-7.55882e-07
1.83229e-08
-7.57106e-07
6.472e-09
-7.56061e-07
-5.43779e-09
-7.52748e-07
-1.73438e-08
-7.47182e-07
-2.91825e-08
-7.39387e-07
-4.08896e-08
-7.294e-07
-5.24004e-08
-7.17271e-07
-6.36495e-08
-7.03061e-07
-7.45712e-08
-6.86844e-07
-8.50999e-08
-6.68706e-07
-9.51697e-08
-6.48744e-07
-1.04715e-07
-6.27068e-07
-1.13672e-07
-6.038e-07
-1.21976e-07
-5.79072e-07
-1.29565e-07
-5.53028e-07
-1.36379e-07
-5.25822e-07
-1.42358e-07
-4.97619e-07
-1.47448e-07
-4.6859e-07
-1.51596e-07
-4.38919e-07
-1.54753e-07
-4.08794e-07
-1.56877e-07
-3.78411e-07
-1.57927e-07
-3.47971e-07
-1.57873e-07
-3.17679e-07
-1.56688e-07
-2.87742e-07
-1.54356e-07
-2.58368e-07
-1.50867e-07
-2.29763e-07
-1.46225e-07
-2.0213e-07
-1.40444e-07
-1.75666e-07
-1.33552e-07
-1.50561e-07
-1.25593e-07
-1.26992e-07
-1.1663e-07
-1.05123e-07
-1.06747e-07
-8.51001e-08
-9.60529e-08
-6.70492e-08
-8.46867e-08
-5.10729e-08
-7.28221e-08
-3.72471e-08
-6.0674e-08
-2.56188e-08
-4.85064e-08
-1.62047e-08
-3.6641e-08
-8.99045e-09
-2.54682e-08
-3.93264e-09
-1.5456e-08
-9.63371e-10
-7.1618e-09
-1.28535e-09
-1.29245e-09
3.01283e-09
-5.14337e-09
1.21665e-08
-1.15391e-08
2.35787e-08
-2.04618e-08
3.65619e-08
-3.18807e-08
5.05405e-08
-4.57461e-08
6.50252e-08
-6.19869e-08
7.96081e-08
-8.05092e-08
9.39539e-08
-1.01198e-07
1.0779e-07
-1.23916e-07
1.20897e-07
-1.48509e-07
1.33101e-07
-1.74808e-07
1.44267e-07
-2.02629e-07
1.54291e-07
-2.31778e-07
1.63099e-07
-2.62055e-07
1.70637e-07
-2.93253e-07
1.76873e-07
-3.2516e-07
1.8179e-07
-3.57566e-07
1.85384e-07
-3.90259e-07
1.87664e-07
-4.2303e-07
1.88649e-07
-4.55673e-07
1.88364e-07
-4.87987e-07
1.86843e-07
-5.19775e-07
1.84125e-07
-5.5085e-07
1.80253e-07
-5.81027e-07
1.75275e-07
-6.10134e-07
1.69243e-07
-6.38005e-07
1.62209e-07
-6.64483e-07
1.54232e-07
-6.89422e-07
1.45369e-07
-7.12683e-07
1.35682e-07
-7.34141e-07
1.25232e-07
-7.53679e-07
1.14083e-07
-7.71191e-07
1.02301e-07
-7.86583e-07
8.9951e-08
-7.99772e-07
7.71015e-08
-8.10685e-07
6.3821e-08
-8.19263e-07
5.01794e-08
-8.25458e-07
3.62479e-08
-8.29234e-07
2.20985e-08
-8.30566e-07
7.80457e-09
-8.29445e-07
-6.5596e-09
-8.2587e-07
-2.09187e-08
-8.19855e-07
-3.51966e-08
-8.11429e-07
-4.93161e-08
-8.0063e-07
-6.31995e-08
-7.87511e-07
-7.67686e-08
-7.72137e-07
-8.99446e-08
-7.54588e-07
-1.02649e-07
-7.34955e-07
-1.14803e-07
-7.13343e-07
-1.26328e-07
-6.89869e-07
-1.37147e-07
-6.64661e-07
-1.47183e-07
-6.37863e-07
-1.56364e-07
-6.09627e-07
-1.64615e-07
-5.80117e-07
-1.71868e-07
-5.49509e-07
-1.78056e-07
-5.17988e-07
-1.83117e-07
-4.85746e-07
-1.86995e-07
-4.52988e-07
-1.89636e-07
-4.19919e-07
-1.90996e-07
-3.86756e-07
-1.91036e-07
-3.53717e-07
-1.89728e-07
-3.21022e-07
-1.8705e-07
-2.88893e-07
-1.82996e-07
-2.57551e-07
-1.77567e-07
-2.27213e-07
-1.70782e-07
-1.98089e-07
-1.62675e-07
-1.70384e-07
-1.53298e-07
-1.44289e-07
-1.42725e-07
-1.19983e-07
-1.31053e-07
-9.76278e-08
-1.18408e-07
-7.73661e-08
-1.04948e-07
-5.93189e-08
-9.08693e-08
-4.35831e-08
-7.64098e-08
-3.02301e-08
-6.18594e-08
-1.93052e-08
-4.75659e-08
-1.08286e-08
-3.39447e-08
-4.79852e-09
-2.1486e-08
-1.19685e-09
-1.07635e-08
-2.4822e-09
-1.5249e-09
4.53773e-09
-6.01178e-09
1.66534e-08
-1.33903e-08
3.09573e-08
-2.35926e-08
4.67641e-08
-3.65436e-08
6.34915e-08
-5.21563e-08
8.06379e-08
-7.0327e-08
9.77789e-08
-9.09345e-08
1.14561e-07
-1.13839e-07
1.30695e-07
-1.38884e-07
1.45942e-07
-1.65897e-07
1.60114e-07
-1.94691e-07
1.73061e-07
-2.25067e-07
1.84668e-07
-2.56818e-07
1.9485e-07
-2.89728e-07
2.03548e-07
-3.23578e-07
2.10723e-07
-3.58145e-07
2.16356e-07
-3.93203e-07
2.20443e-07
-4.28531e-07
2.22992e-07
-4.63907e-07
2.24025e-07
-4.99113e-07
2.2357e-07
-5.33936e-07
2.21667e-07
-5.6817e-07
2.18359e-07
-6.01614e-07
2.13697e-07
-6.34076e-07
2.07737e-07
-6.65372e-07
2.00539e-07
-6.95327e-07
1.92164e-07
-7.23776e-07
1.8268e-07
-7.50562e-07
1.72155e-07
-7.75541e-07
1.60661e-07
-7.98578e-07
1.48269e-07
-8.19551e-07
1.35056e-07
-8.38347e-07
1.21097e-07
-8.54867e-07
1.06471e-07
-8.69022e-07
9.12568e-08
-8.80737e-07
7.55357e-08
-8.89948e-07
5.939e-08
-8.96603e-07
4.29033e-08
-9.00665e-07
2.61607e-08
-9.02109e-07
9.24817e-09
-9.00922e-07
-7.74667e-09
-8.97105e-07
-2.47353e-08
-8.90674e-07
-4.1628e-08
-8.81656e-07
-5.83341e-08
-8.70093e-07
-7.47624e-08
-8.56041e-07
-9.08207e-08
-8.39569e-07
-1.06417e-07
-8.2076e-07
-1.21458e-07
-7.99711e-07
-1.35852e-07
-7.76532e-07
-1.49506e-07
-7.51347e-07
-1.62332e-07
-7.24293e-07
-1.74238e-07
-6.95519e-07
-1.85138e-07
-6.65186e-07
-1.94947e-07
-6.3347e-07
-2.03584e-07
-6.00555e-07
-2.10971e-07
-5.66635e-07
-2.17037e-07
-5.31916e-07
-2.21713e-07
-4.96612e-07
-2.2494e-07
-4.60942e-07
-2.26665e-07
-4.25134e-07
-2.26844e-07
-3.89419e-07
-2.25443e-07
-3.5403e-07
-2.22439e-07
-3.19203e-07
-2.17823e-07
-2.85172e-07
-2.11599e-07
-2.52167e-07
-2.03787e-07
-2.20414e-07
-1.94428e-07
-1.90131e-07
-1.83581e-07
-1.61526e-07
-1.71331e-07
-1.34791e-07
-1.57787e-07
-1.10108e-07
-1.43092e-07
-8.76354e-08
-1.27421e-07
-6.75159e-08
-1.10989e-07
-4.9869e-08
-9.40567e-08
-3.47923e-08
-7.69361e-08
-2.23614e-08
-5.99968e-08
-1.26318e-08
-4.36743e-08
-5.64248e-09
-2.84754e-08
-1.42214e-09
-1.49838e-08
-3.90434e-09
-1.74877e-09
6.28648e-09
-6.85442e-09
2.17591e-08
-1.5196e-08
3.92989e-08
-2.66584e-08
5.82265e-08
-4.11247e-08
7.79579e-08
-5.84701e-08
9.79833e-08
-7.85583e-08
1.17867e-07
-1.01239e-07
1.37242e-07
-1.26348e-07
1.55804e-07
-1.53706e-07
1.733e-07
-1.83121e-07
1.89528e-07
-2.14387e-07
2.04327e-07
-2.47292e-07
2.17572e-07
-2.81611e-07
2.29169e-07
-3.17115e-07
2.39053e-07
-3.53572e-07
2.4718e-07
-3.90746e-07
2.5353e-07
-4.28401e-07
2.58097e-07
-4.66301e-07
2.60892e-07
-5.04213e-07
2.61938e-07
-5.41911e-07
2.61267e-07
-5.79169e-07
2.58925e-07
-6.1577e-07
2.54961e-07
-6.51506e-07
2.49433e-07
-6.86174e-07
2.42405e-07
-7.1958e-07
2.33945e-07
-7.51542e-07
2.24126e-07
-7.81886e-07
2.13024e-07
-8.10448e-07
2.00718e-07
-8.37077e-07
1.8729e-07
-8.61631e-07
1.72824e-07
-8.83982e-07
1.57407e-07
-9.04011e-07
1.41127e-07
-9.21615e-07
1.24074e-07
-9.367e-07
1.06342e-07
-9.49186e-07
8.80224e-08
-9.59008e-07
6.92116e-08
-9.66111e-07
5.00062e-08
-9.70455e-07
3.05046e-08
-9.72013e-07
1.08065e-08
-9.70773e-07
-8.98685e-09
-9.66735e-07
-2.87729e-08
-9.59915e-07
-4.8448e-08
-9.50342e-07
-6.79073e-08
-9.38059e-07
-8.70451e-08
-9.23125e-07
-1.05755e-07
-9.05612e-07
-1.2393e-07
-8.85606e-07
-1.41464e-07
-8.63209e-07
-1.58249e-07
-8.38536e-07
-1.7418e-07
-8.11716e-07
-1.89151e-07
-7.82893e-07
-2.03061e-07
-7.52223e-07
-2.15808e-07
-7.19876e-07
-2.27294e-07
-6.86034e-07
-2.37426e-07
-6.50891e-07
-2.46115e-07
-6.14651e-07
-2.53277e-07
-5.7753e-07
-2.58834e-07
-5.39752e-07
-2.62719e-07
-5.01547e-07
-2.64869e-07
-4.63155e-07
-2.65236e-07
-4.24819e-07
-2.63779e-07
-3.86786e-07
-2.60473e-07
-3.49303e-07
-2.55306e-07
-3.12617e-07
-2.48284e-07
-2.76975e-07
-2.3943e-07
-2.42615e-07
-2.28788e-07
-2.09771e-07
-2.16425e-07
-1.78665e-07
-2.02436e-07
-1.4951e-07
-1.86943e-07
-1.22502e-07
-1.701e-07
-9.78218e-08
-1.52101e-07
-7.5633e-08
-1.33178e-07
-5.60798e-08
-1.1361e-07
-3.92872e-08
-9.37287e-08
-2.53619e-08
-7.39222e-08
-1.43943e-08
-5.46419e-08
-6.46268e-09
-3.6407e-08
-1.63924e-09
-1.98073e-08
-5.54358e-09
-1.96446e-09
8.25094e-09
-7.67147e-09
2.74661e-08
-1.69545e-08
4.85818e-08
-2.96549e-08
7.0927e-08
-4.56154e-08
9.39184e-08
-6.46748e-08
1.17043e-07
-8.66637e-08
1.39856e-07
-1.11403e-07
1.61981e-07
-1.38701e-07
1.83102e-07
-1.68356e-07
2.02955e-07
-2.00156e-07
2.21328e-07
-2.33876e-07
2.38047e-07
-2.69285e-07
2.52981e-07
-3.06144e-07
2.66029e-07
-3.44211e-07
2.7712e-07
-3.83239e-07
2.86208e-07
-4.22979e-07
2.9327e-07
-4.63182e-07
2.98301e-07
-5.03603e-07
3.01313e-07
-5.43998e-07
3.02333e-07
-5.84128e-07
3.01397e-07
-6.2376e-07
2.98556e-07
-6.62667e-07
2.93867e-07
-7.00629e-07
2.87396e-07
-7.37437e-07
2.79213e-07
-7.7289e-07
2.69398e-07
-8.06795e-07
2.58031e-07
-8.38972e-07
2.45201e-07
-8.69251e-07
2.30997e-07
-8.97474e-07
2.15512e-07
-9.23493e-07
1.98843e-07
-9.47174e-07
1.81088e-07
-9.68395e-07
1.62348e-07
-9.87047e-07
1.42726e-07
-1.00303e-06
1.22327e-07
-1.01627e-06
1.01258e-07
-1.02668e-06
7.96282e-08
-1.03423e-06
5.75476e-08
-1.03885e-06
3.51287e-08
-1.04053e-06
1.24852e-08
-1.03925e-06
-1.02672e-08
-1.03501e-06
-3.30117e-08
-1.02783e-06
-5.56299e-08
-1.01773e-06
-7.80021e-08
-1.00477e-06
-1.00008e-07
-9.88999e-07
-1.21526e-07
-9.70495e-07
-1.42434e-07
-9.49347e-07
-1.62611e-07
-9.25661e-07
-1.81934e-07
-8.99557e-07
-2.00284e-07
-8.71168e-07
-2.1754e-07
-8.40644e-07
-2.33585e-07
-8.08147e-07
-2.48305e-07
-7.73853e-07
-2.61587e-07
-7.37953e-07
-2.73326e-07
-7.00648e-07
-2.8342e-07
-6.62152e-07
-2.91773e-07
-6.22688e-07
-2.98297e-07
-5.82492e-07
-3.02915e-07
-5.41805e-07
-3.05556e-07
-5.00877e-07
-3.06164e-07
-4.59963e-07
-3.04693e-07
-4.19321e-07
-3.01115e-07
-3.79213e-07
-2.95414e-07
-3.39899e-07
-2.87598e-07
-3.01639e-07
-2.7769e-07
-2.64687e-07
-2.6574e-07
-2.29292e-07
-2.5182e-07
-1.95694e-07
-2.36034e-07
-1.64123e-07
-2.18514e-07
-1.34794e-07
-1.99429e-07
-1.0791e-07
-1.78985e-07
-8.36576e-08
-1.5743e-07
-6.2206e-08
-1.35061e-07
-4.37087e-08
-1.12226e-07
-2.83036e-08
-8.93273e-08
-1.61153e-08
-6.68302e-08
-7.25965e-09
-4.52626e-08
-1.8487e-09
-2.52182e-08
-7.39228e-09
-2.17272e-09
1.04237e-08
-8.46444e-09
3.37578e-08
-1.86674e-08
5.87848e-08
-3.25828e-08
8.48424e-08
-5.00152e-08
1.11351e-07
-7.07675e-08
1.37795e-07
-9.46381e-08
1.63727e-07
-1.21418e-07
1.88761e-07
-1.50889e-07
2.12573e-07
-1.82826e-07
2.34892e-07
-2.16994e-07
2.55495e-07
-2.53149e-07
2.74203e-07
-2.91043e-07
2.90875e-07
-3.30421e-07
3.05406e-07
-3.71024e-07
3.17723e-07
-4.12592e-07
3.27776e-07
-4.54864e-07
3.35542e-07
-4.97579e-07
3.41016e-07
-5.4048e-07
3.44214e-07
-5.83313e-07
3.45165e-07
-6.25829e-07
3.43913e-07
-6.67784e-07
3.40512e-07
-7.08944e-07
3.35027e-07
-7.49081e-07
3.27532e-07
-7.87976e-07
3.18108e-07
-8.25421e-07
3.06842e-07
-8.61217e-07
2.93828e-07
-8.95177e-07
2.79161e-07
-9.27124e-07
2.62944e-07
-9.56894e-07
2.45283e-07
-9.84336e-07
2.26285e-07
-1.00931e-06
2.06061e-07
-1.03169e-06
1.84726e-07
-1.05136e-06
1.62396e-07
-1.06822e-06
1.39189e-07
-1.08219e-06
1.15225e-07
-1.09319e-06
9.06282e-08
-1.10116e-06
6.55222e-08
-1.10607e-06
4.00339e-08
-1.10787e-06
1.42917e-08
-1.10657e-06
-1.15741e-08
-1.10215e-06
-3.74317e-08
-1.09463e-06
-6.31477e-08
-1.08404e-06
-8.85871e-08
-1.07044e-06
-1.13614e-07
-1.05387e-06
-1.38092e-07
-1.03442e-06
-1.61883e-07
-1.01218e-06
-1.8485e-07
-9.87262e-07
-2.06856e-07
-9.59781e-07
-2.27765e-07
-9.29879e-07
-2.47441e-07
-8.97711e-07
-2.65753e-07
-8.63445e-07
-2.82571e-07
-8.27262e-07
-2.9777e-07
-7.8936e-07
-3.11228e-07
-7.49948e-07
-3.22832e-07
-7.09247e-07
-3.32474e-07
-6.6749e-07
-3.40054e-07
-6.24922e-07
-3.45484e-07
-5.81793e-07
-3.48685e-07
-5.38365e-07
-3.49592e-07
-4.94904e-07
-3.48155e-07
-4.5168e-07
-3.44338e-07
-4.08968e-07
-3.38126e-07
-3.67042e-07
-3.29523e-07
-3.26177e-07
-3.18556e-07
-2.86642e-07
-3.05275e-07
-2.48702e-07
-2.8976e-07
-2.12615e-07
-2.72121e-07
-1.7863e-07
-2.52499e-07
-1.46984e-07
-2.31075e-07
-1.179e-07
-2.08068e-07
-9.15898e-08
-1.8374e-07
-6.82488e-08
-1.58403e-07
-4.80589e-08
-1.32416e-07
-3.11891e-08
-1.06197e-07
-1.77976e-08
-8.02217e-08
-8.0354e-09
-5.50249e-08
-2.05138e-09
-3.12022e-08
-9.44366e-09
-2.37441e-09
1.27981e-08
-9.23559e-09
4.0619e-08
-2.03383e-08
6.98875e-08
-3.54465e-08
9.99506e-08
-5.43284e-08
1.30233e-07
-7.67526e-08
1.60219e-07
-1.02485e-07
1.89459e-07
-1.31288e-07
2.17564e-07
-1.62916e-07
2.44202e-07
-1.97119e-07
2.69095e-07
-2.3364e-07
2.92015e-07
-2.72215e-07
3.12777e-07
-3.12576e-07
3.31236e-07
-3.54452e-07
3.47283e-07
-3.9757e-07
3.60841e-07
-4.41654e-07
3.7186e-07
-4.86431e-07
3.80318e-07
-5.31628e-07
3.86213e-07
-5.76976e-07
3.89562e-07
-6.22211e-07
3.904e-07
-6.67074e-07
3.88776e-07
-7.11312e-07
3.84751e-07
-7.54683e-07
3.78398e-07
-7.96951e-07
3.698e-07
-8.37889e-07
3.59047e-07
-8.77282e-07
3.46236e-07
-9.14926e-07
3.31471e-07
-9.50626e-07
3.14861e-07
-9.84201e-07
2.9652e-07
-1.01548e-06
2.76564e-07
-1.04431e-06
2.55114e-07
-1.07055e-06
2.32296e-07
-1.09406e-06
2.08235e-07
-1.11472e-06
1.83062e-07
-1.13244e-06
1.56909e-07
-1.14713e-06
1.29911e-07
-1.1587e-06
1.02204e-07
-1.16711e-06
7.3928e-08
-1.1723e-06
4.52238e-08
-1.17424e-06
1.62351e-08
-1.17292e-06
-1.2893e-08
-1.16834e-06
-4.20132e-08
-1.16051e-06
-7.09765e-08
-1.14947e-06
-9.96325e-08
-1.13525e-06
-1.2783e-07
-1.11793e-06
-1.55415e-07
-1.09758e-06
-1.82235e-07