/*--------------------------------*- C++ -*----------------------------------*\
  =========                 |
  \\      /  F ield         | OpenFOAM: The Open Source CFD Toolbox
   \\    /   O peration     | Website:  https://openfoam.org
    \\  /    A nd           | Version:  7
     \\/     M anipulation  |
\*---------------------------------------------------------------------------*/
FoamFile
{
    version     2.0;
    format      ascii;
    class       volVectorField;
    location    "0.125";
    object      U;
}
// * * * * * * * * * * * * * * * * * * * * * * * * * * * * * * * * * * * * * //

dimensions      [0 1 -1 0 0 0 0];

internalField   nonuniform List<vector> 
6400
(
(7.13738e-06 -7.23961e-06 0)
(2.96726e-05 -1.46635e-05 0)
(5.94795e-05 -1.45563e-05 0)
(8.12838e-05 -1.00615e-05 0)
(8.65735e-05 -3.64948e-06 0)
(7.20365e-05 3.40162e-06 0)
(3.66007e-05 1.04697e-05 0)
(-1.96579e-05 1.72405e-05 0)
(-9.59503e-05 2.35608e-05 0)
(-0.000191064 2.93575e-05 0)
(-0.000303547 3.45926e-05 0)
(-0.000431796 3.92632e-05 0)
(-0.000574127 4.33639e-05 0)
(-0.000728832 4.69028e-05 0)
(-0.000894179 4.98931e-05 0)
(-0.00106846 5.23499e-05 0)
(-0.00125 5.42922e-05 0)
(-0.00143714 5.57371e-05 0)
(-0.0016283 5.67079e-05 0)
(-0.00182192 5.72197e-05 0)
(-0.00201651 5.7292e-05 0)
(-0.00221066 5.69486e-05 0)
(-0.00240298 5.62099e-05 0)
(-0.00259218 5.50951e-05 0)
(-0.00277702 5.3626e-05 0)
(-0.00295631 5.18236e-05 0)
(-0.00312896 4.97073e-05 0)
(-0.00329392 4.72954e-05 0)
(-0.00345022 4.46081e-05 0)
(-0.00359695 4.16656e-05 0)
(-0.00373326 3.84888e-05 0)
(-0.00385838 3.50968e-05 0)
(-0.00397162 3.15088e-05 0)
(-0.00407233 2.77461e-05 0)
(-0.00415995 2.38287e-05 0)
(-0.00423398 1.97751e-05 0)
(-0.004294 1.56064e-05 0)
(-0.00433965 1.13447e-05 0)
(-0.00437066 7.01211e-06 0)
(-0.00438683 2.63119e-06 0)
(-0.00438803 -1.77704e-06 0)
(-0.0043742 -6.19204e-06 0)
(-0.00434537 -1.05902e-05 0)
(-0.00430166 -1.49465e-05 0)
(-0.00424326 -1.92371e-05 0)
(-0.00417043 -2.34379e-05 0)
(-0.00408354 -2.75236e-05 0)
(-0.00398304 -3.1469e-05 0)
(-0.00386944 -3.52489e-05 0)
(-0.00374338 -3.88371e-05 0)
(-0.00360554 -4.22075e-05 0)
(-0.00345673 -4.53339e-05 0)
(-0.00329782 -4.81899e-05 0)
(-0.00312978 -5.07492e-05 0)
(-0.00295366 -5.29868e-05 0)
(-0.00277058 -5.48787e-05 0)
(-0.00258177 -5.64009e-05 0)
(-0.0023885 -5.75292e-05 0)
(-0.00219214 -5.82402e-05 0)
(-0.00199412 -5.85118e-05 0)
(-0.00179595 -5.83236e-05 0)
(-0.00159917 -5.76569e-05 0)
(-0.00140539 -5.64949e-05 0)
(-0.00121627 -5.48232e-05 0)
(-0.00103349 -5.26289e-05 0)
(-0.000858753 -4.9901e-05 0)
(-0.000693791 -4.66306e-05 0)
(-0.000540323 -4.28121e-05 0)
(-0.000400051 -3.84447e-05 0)
(-0.000274634 -3.35335e-05 0)
(-0.000165655 -2.80933e-05 0)
(-7.45715e-05 -2.21532e-05 0)
(-2.64949e-06 -1.57675e-05 0)
(4.91438e-05 -9.03421e-06 0)
(8.03141e-05 -2.13242e-06 0)
(9.11233e-05 4.60529e-06 0)
(8.3009e-05 1.05573e-05 0)
(5.9519e-05 1.45335e-05 0)
(2.91245e-05 1.42985e-05 0)
(6.85143e-06 6.84946e-06 0)
(1.40197e-05 -2.94774e-05 0)
(5.07063e-05 -5.15461e-05 0)
(8.89663e-05 -4.47336e-05 0)
(0.000103172 -1.98727e-05 0)
(7.73561e-05 1.46337e-05 0)
(3.50063e-06 5.35448e-05 0)
(-0.000122097 9.37143e-05 0)
(-0.000300328 0.000133267 0)
(-0.000530122 0.000171042 0)
(-0.000809099 0.000206351 0)
(-0.001134 0.000238765 0)
(-0.00150102 0.000268032 0)
(-0.00190598 0.000294019 0)
(-0.00234448 0.000316658 0)
(-0.00281202 0.000335947 0)
(-0.00330405 0.000351908 0)
(-0.00381606 0.000364604 0)
(-0.00434357 0.000374113 0)
(-0.0048822 0.000380527 0)
(-0.00542769 0.000383947 0)
(-0.00597592 0.000384485 0)
(-0.00652289 0.000382258 0)
(-0.00706478 0.000377387 0)
(-0.00759793 0.000369998 0)
(-0.00811884 0.00036022 0)
(-0.00862419 0.000348181 0)
(-0.00911086 0.000334012 0)
(-0.0095759 0.000317842 0)
(-0.0100165 0.000299806 0)
(-0.0104302 0.000280038 0)
(-0.0108145 0.000258668 0)
(-0.0111672 0.000235835 0)
(-0.0114863 0.000211673 0)
(-0.0117701 0.000186321 0)
(-0.012017 0.000159916 0)
(-0.0122254 0.000132598 0)
(-0.0123943 0.000104511 0)
(-0.0125226 7.58004e-05 0)
(-0.0126096 4.66155e-05 0)
(-0.0126546 1.71055e-05 0)
(-0.0126574 -1.25786e-05 0)
(-0.0126179 -4.22829e-05 0)
(-0.012536 -7.1849e-05 0)
(-0.0124122 -0.000101115 0)
(-0.0122469 -0.000129918 0)
(-0.0120411 -0.000158091 0)
(-0.0117956 -0.000185467 0)
(-0.0115119 -0.000211875 0)
(-0.0111914 -0.000237146 0)
(-0.0108358 -0.000261106 0)
(-0.0104473 -0.000283583 0)
(-0.0100279 -0.000304404 0)
(-0.0095803 -0.000323398 0)
(-0.0091071 -0.000340398 0)
(-0.00861128 -0.00035524 0)
(-0.00809604 -0.000367765 0)
(-0.00756476 -0.00037782 0)
(-0.00702107 -0.000385255 0)
(-0.00646876 -0.000389928 0)
(-0.00591182 -0.000391709 0)
(-0.0053544 -0.000390477 0)
(-0.0048008 -0.000386127 0)
(-0.00425546 -0.000378567 0)
(-0.00372289 -0.000367726 0)
(-0.00320769 -0.000353548 0)
(-0.00271449 -0.000336003 0)
(-0.00224791 -0.000315087 0)
(-0.00181251 -0.000290828 0)
(-0.00141274 -0.000263304 0)
(-0.00105282 -0.00023265 0)
(-0.000736683 -0.000199084 0)
(-0.000467781 -0.000162946 0)
(-0.000248902 -0.000124752 0)
(-8.187e-05 -8.52916e-05 0)
(3.28813e-05 -4.57883e-05 0)
(9.69289e-05 -8.17037e-06 0)
(0.000114633 2.44905e-05 0)
(9.44215e-05 4.72658e-05 0)
(5.2394e-05 5.23461e-05 0)
(1.42946e-05 2.90991e-05 0)
(1.37176e-05 -5.83314e-05 0)
(4.32309e-05 -8.932e-05 0)
(5.94583e-05 -6.11763e-05 0)
(3.39801e-05 5.43635e-06 0)
(-5.17244e-05 9.47811e-05 0)
(-0.000208062 0.000195886 0)
(-0.000440398 0.000301414 0)
(-0.000750471 0.000406485 0)
(-0.00113726 0.000507896 0)
(-0.00159774 0.000603512 0)
(-0.00212752 0.000691945 0)
(-0.00272122 0.000772289 0)
(-0.00337278 0.000843991 0)
(-0.00407573 0.000906742 0)
(-0.00482332 0.000960391 0)
(-0.00560867 0.00100494 0)
(-0.00642487 0.00104046 0)
(-0.00726503 0.00106711 0)
(-0.00812238 0.00108511 0)
(-0.00899028 0.0010947 0)
(-0.00986226 0.00109616 0)
(-0.0107321 0.0010898 0)
(-0.0115937 0.00107595 0)
(-0.0124414 0.00105493 0)
(-0.0132695 0.0010271 0)
(-0.0140729 0.000992822 0)
(-0.0148466 0.000952455 0)
(-0.0155859 0.00090637 0)
(-0.0162863 0.000854942 0)
(-0.0169438 0.00079855 0)
(-0.0175546 0.000737577 0)
(-0.0181152 0.000672409 0)
(-0.0186223 0.000603436 0)
(-0.0190732 0.000531054 0)
(-0.0194653 0.000455663 0)
(-0.0197963 0.000377667 0)
(-0.0200643 0.00029748 0)
(-0.0202678 0.00021552 0)
(-0.0204055 0.000132212 0)
(-0.0204765 4.79889e-05 0)
(-0.0204804 -3.67135e-05 0)
(-0.0204168 -0.00012145 0)
(-0.0202861 -0.000205765 0)
(-0.0200886 -0.000289196 0)
(-0.0198254 -0.000371276 0)
(-0.0194977 -0.000451531 0)
(-0.0191072 -0.000529481 0)
(-0.0186559 -0.000604643 0)
(-0.0181462 -0.000676532 0)
(-0.017581 -0.000744659 0)
(-0.0169634 -0.000808536 0)
(-0.0162971 -0.000867678 0)
(-0.015586 -0.000921606 0)
(-0.0148343 -0.000969851 0)
(-0.0140468 -0.00101195 0)
(-0.0132285 -0.00104747 0)
(-0.0123849 -0.00107598 0)
(-0.0115214 -0.00109706 0)
(-0.0106443 -0.00111034 0)
(-0.00975964 -0.00111547 0)
(-0.00887401 -0.00111213 0)
(-0.00799411 -0.00110004 0)
(-0.00712682 -0.00107898 0)
(-0.00627918 -0.00104878 0)
(-0.00545826 -0.00100932 0)
(-0.00467119 -0.000960589 0)
(-0.00392501 -0.00090263 0)
(-0.00322663 -0.000835618 0)
(-0.00258269 -0.000759871 0)
(-0.00199945 -0.000675897 0)
(-0.00148258 -0.000584454 0)
(-0.00103694 -0.000486652 0)
(-0.000666306 -0.000384093 0)
(-0.000372924 -0.000279087 0)
(-0.000156976 -0.000174986 0)
(-1.58543e-05 -7.66855e-05 0)
(5.66522e-05 8.64751e-06 0)
(7.15168e-05 7.06289e-05 0)
(4.77408e-05 9.44846e-05 0)
(1.46135e-05 5.95547e-05 0)
(9.59927e-06 -7.92922e-05 0)
(1.92478e-05 -0.000102971 0)
(-5.97383e-06 -3.56546e-05 0)
(-9.23587e-05 9.19782e-05 0)
(-0.000258073 0.000256945 0)
(-0.00051417 0.000442379 0)
(-0.000866623 0.000636264 0)
(-0.00131743 0.000830182 0)
(-0.00186546 0.00101828 0)
(-0.00250722 0.0011965 0)
(-0.00323742 0.00136203 0)
(-0.00404951 0.001513 0)
(-0.00493597 0.00164816 0)
(-0.00588867 0.00176676 0)
(-0.00689902 0.0018684 0)
(-0.00795823 0.00195292 0)
(-0.00905735 0.00202039 0)
(-0.0101875 0.00207102 0)
(-0.0113397 0.00210515 0)
(-0.0125054 0.00212319 0)
(-0.013676 0.00212564 0)
(-0.0148433 0.00211306 0)
(-0.0159993 0.00208602 0)
(-0.0171362 0.00204517 0)
(-0.0182469 0.00199116 0)
(-0.0193242 0.00192466 0)
(-0.0203615 0.00184636 0)
(-0.0213525 0.00175698 0)
(-0.0222915 0.00165723 0)
(-0.0231728 0.00154785 0)
(-0.0239913 0.00142957 0)
(-0.0247425 0.00130316 0)
(-0.0254221 0.00116935 0)
(-0.0260261 0.00102893 0)
(-0.0265512 0.000882679 0)
(-0.0269943 0.000731377 0)
(-0.0273531 0.000575834 0)
(-0.0276252 0.000416866 0)
(-0.0278092 0.0002553 0)
(-0.0279038 9.19764e-05 0)
(-0.0279083 -7.22493e-05 0)
(-0.0278225 -0.000236509 0)
(-0.0276466 -0.000399919 0)
(-0.0273814 -0.000561584 0)
(-0.0270282 -0.000720594 0)
(-0.0265885 -0.000876031 0)
(-0.0260648 -0.00102697 0)
(-0.0254597 -0.00117247 0)
(-0.0247765 -0.0013116 0)
(-0.024019 -0.00144341 0)
(-0.0231914 -0.00156697 0)
(-0.0222986 -0.00168136 0)
(-0.0213458 -0.00178564 0)
(-0.0203389 -0.00187894 0)
(-0.0192839 -0.00196036 0)
(-0.0181877 -0.00202907 0)
(-0.0170573 -0.00208426 0)
(-0.0159004 -0.00212516 0)
(-0.0147247 -0.00215106 0)
(-0.0135387 -0.00216132 0)
(-0.0123509 -0.00215535 0)
(-0.0111701 -0.00213267 0)
(-0.0100053 -0.00209288 0)
(-0.00886583 -0.0020357 0)
(-0.00776079 -0.00196099 0)
(-0.00669945 -0.00186876 0)
(-0.0056909 -0.00175921 0)
(-0.00474399 -0.00163278 0)
(-0.00386717 -0.00149019 0)
(-0.00306829 -0.00133256 0)
(-0.00235442 -0.00116148 0)
(-0.0017315 -0.00097919 0)
(-0.00120406 -0.000788832 0)
(-0.000774688 -0.000594758 0)
(-0.000443525 -0.000403024 0)
(-0.000207537 -0.000222061 0)
(-5.97581e-05 -6.36096e-05 0)
(1.16979e-05 5.62175e-05 0)
(2.59386e-05 0.000115572 0)
(1.08502e-05 8.34755e-05 0)
(3.74041e-06 -8.45602e-05 0)
(-1.37098e-05 -7.74396e-05 0)
(-9.29601e-05 4.96401e-05 0)
(-0.000254652 0.000257518 0)
(-0.000514521 0.000516757 0)
(-0.000883077 0.000805003 0)
(-0.00136593 0.0011057 0)
(-0.00196475 0.0014068 0)
(-0.00267799 0.00169958 0)
(-0.00350157 0.00197775 0)
(-0.00442944 0.00223686 0)
(-0.00545402 0.00247377 0)
(-0.0065666 0.00268635 0)
(-0.00775765 0.00287322 0)
(-0.0090171 0.00303358 0)
(-0.0103345 0.00316706 0)
(-0.0116992 0.00327362 0)
(-0.0131006 0.0033535 0)
(-0.0145279 0.00340712 0)
(-0.0159707 0.00343511 0)
(-0.0174188 0.00343816 0)
(-0.0188619 0.00341713 0)
(-0.0202905 0.00337291 0)
(-0.0216952 0.00330648 0)
(-0.023067 0.00321887 0)
(-0.0243973 0.00311113 0)
(-0.025678 0.00298438 0)
(-0.0269014 0.00283974 0)
(-0.0280603 0.00267836 0)
(-0.0291479 0.00250142 0)
(-0.0301579 0.0023101 0)
(-0.0310847 0.00210563 0)
(-0.0319229 0.00188923 0)
(-0.0326679 0.00166214 0)
(-0.0333153 0.00142562 0)
(-0.0338617 0.00118097 0)
(-0.0343037 0.000929473 0)
(-0.0346389 0.000672463 0)
(-0.0348653 0.000411279 0)
(-0.0349814 0.000147287 0)
(-0.0349864 -0.000118129 0)
(-0.0348799 -0.00038356 0)
(-0.0346624 -0.000647578 0)
(-0.0343347 -0.000908734 0)
(-0.0338984 -0.00116556 0)
(-0.0333556 -0.00141658 0)
(-0.0327092 -0.00166028 0)
(-0.0319625 -0.00189518 0)
(-0.0311195 -0.00211975 0)
(-0.030185 -0.00233249 0)
(-0.029164 -0.00253191 0)
(-0.0280627 -0.0027165 0)
(-0.0268873 -0.00288482 0)
(-0.025645 -0.00303542 0)
(-0.0243435 -0.00316692 0)
(-0.0229909 -0.00327798 0)
(-0.0215959 -0.00336732 0)
(-0.0201677 -0.00343374 0)
(-0.0187161 -0.00347613 0)
(-0.0172509 -0.00349349 0)
(-0.0157828 -0.00348494 0)
(-0.0143222 -0.00344974 0)
(-0.0128802 -0.00338731 0)
(-0.0114679 -0.00329729 0)
(-0.0100962 -0.00317952 0)
(-0.00877627 -0.00303411 0)
(-0.00751891 -0.0028615 0)
(-0.00633461 -0.00266251 0)
(-0.00523331 -0.00243844 0)
(-0.00422422 -0.00219119 0)
(-0.00331556 -0.00192343 0)
(-0.00251422 -0.00163881 0)
(-0.00182541 -0.00134228 0)
(-0.00125221 -0.00104055 0)
(-0.000795028 -0.000742595 0)
(-0.000451027 -0.000460528 0)
(-0.000213399 -0.000210582 0)
(-7.0547e-05 -1.42768e-05 0)
(-5.29104e-06 0.000100069 0)
(5.2275e-06 9.26909e-05 0)
(-2.79349e-06 -7.10115e-05 0)
(-5.11506e-05 -5.01229e-06 0)
(-0.000192007 0.000204964 0)
(-0.000438233 0.000513385 0)
(-0.000801796 0.000885391 0)
(-0.00129171 0.00129383 0)
(-0.00191248 0.001718 0)
(-0.00266486 0.00214233 0)
(-0.00354656 0.00255523 0)
(-0.00455273 0.00294809 0)
(-0.00567647 0.00331462 0)
(-0.00690926 0.0036503 0)
(-0.00824131 0.00395194 0)
(-0.0096619 0.00421741 0)
(-0.0111596 0.00444539 0)
(-0.0127227 0.00463518 0)
(-0.0143389 0.0047866 0)
(-0.0159962 0.00489984 0)
(-0.0176822 0.00497544 0)
(-0.0193849 0.00501415 0)
(-0.0210925 0.00501694 0)
(-0.0227934 0.00498495 0)
(-0.0244762 0.00491943 0)
(-0.0261302 0.00482175 0)
(-0.0277449 0.00469336 0)
(-0.0293103 0.00453576 0)
(-0.030817 0.00435054 0)
(-0.0322559 0.00413932 0)
(-0.0336187 0.00390376 0)
(-0.0348974 0.00364557 0)
(-0.0360847 0.00336646 0)
(-0.037174 0.00306819 0)
(-0.0381591 0.00275257 0)
(-0.0390343 0.00242139 0)
(-0.039795 0.00207651 0)
(-0.0404366 0.00171979 0)
(-0.0409557 0.00135314 0)
(-0.0413491 0.000978488 0)
(-0.0416146 0.00059779 0)
(-0.0417506 0.00021304 0)
(-0.0417559 -0.000173739 0)
(-0.0416303 -0.000560495 0)
(-0.0413742 -0.000945145 0)
(-0.0409888 -0.00132558 0)
(-0.0404757 -0.00169967 0)
(-0.0398377 -0.00206525 0)
(-0.0390778 -0.00242015 0)
(-0.0382002 -0.00276219 0)
(-0.0372095 -0.00308919 0)
(-0.0361112 -0.00339896 0)
(-0.0349114 -0.00368934 0)
(-0.0336169 -0.00395817 0)
(-0.0322355 -0.00420336 0)
(-0.0307752 -0.00442284 0)
(-0.029245 -0.00461461 0)
(-0.0276544 -0.00477677 0)
(-0.0260136 -0.0049075 0)
(-0.0243332 -0.00500509 0)
(-0.0226244 -0.00506797 0)
(-0.0208988 -0.00509475 0)
(-0.0191684 -0.0050842 0)
(-0.0174457 -0.00503532 0)
(-0.0157431 -0.00494737 0)
(-0.0140733 -0.00481987 0)
(-0.0124491 -0.00465272 0)
(-0.010883 -0.00444618 0)
(-0.00938749 -0.00420101 0)
(-0.00797432 -0.00391852 0)
(-0.00665481 -0.00360071 0)
(-0.00543936 -0.00325043 0)
(-0.00433723 -0.00287159 0)
(-0.00335621 -0.00246944 0)
(-0.00250228 -0.00205092 0)
(-0.00177921 -0.00162518 0)
(-0.00118806 -0.00120421 0)
(-0.000726721 -0.000803678 0)
(-0.000389302 -0.000444011 0)
(-0.00016542 -0.00015156 0)
(-4.12365e-05 3.98683e-05 0)
(-1.10353e-06 8.3867e-05 0)
(-9.45773e-06 -3.73491e-05 0)
(-9.04014e-05 0.000118468 0)
(-0.000296883 0.000436494 0)
(-0.000633054 0.000866766 0)
(-0.00110627 0.00137021 0)
(-0.00172337 0.00191568 0)
(-0.00248717 0.00247881 0)
(-0.00339705 0.00304083 0)
(-0.00444958 0.00358739 0)
(-0.00563895 0.0041076 0)
(-0.00695729 0.0045933 0)
(-0.00839509 0.0050385 0)
(-0.00994152 0.00543885 0)
(-0.0115848 0.00579139 0)
(-0.0133122 0.00609419 0)
(-0.0151109 0.00634616 0)
(-0.0169672 0.0065469 0)
(-0.0188678 0.00669655 0)
(-0.020799 0.00679568 0)
(-0.0227474 0.00684522 0)
(-0.0246997 0.00684638 0)
(-0.026643 0.0068006 0)
(-0.0285646 0.00670952 0)
(-0.0304522 0.00657493 0)
(-0.0322943 0.00639874 0)
(-0.0340795 0.00618298 0)
(-0.0357972 0.00592975 0)
(-0.0374373 0.00564123 0)
(-0.0389902 0.00531965 0)
(-0.040447 0.00496731 0)
(-0.0417994 0.00458657 0)
(-0.04304 0.00417979 0)
(-0.0441616 0.00374942 0)
(-0.0451581 0.00329792 0)
(-0.0460239 0.00282779 0)
(-0.0467542 0.0023416 0)
(-0.0473448 0.00184192 0)
(-0.0477924 0.00133139 0)
(-0.0480944 0.000812685 0)
(-0.0482487 0.000288513 0)
(-0.0482545 -0.000238371 0)
(-0.0481112 -0.000765171 0)
(-0.0478195 -0.00128905 0)
(-0.0473805 -0.00180715 0)
(-0.0467963 -0.00231657 0)
(-0.0460698 -0.00281437 0)
(-0.0452047 -0.00329762 0)
(-0.0442055 -0.00376336 0)
(-0.0430776 -0.00420862 0)
(-0.0418271 -0.00463046 0)
(-0.040461 -0.00502595 0)
(-0.0389869 -0.00539219 0)
(-0.0374135 -0.00572635 0)
(-0.0357501 -0.00602567 0)
(-0.0340065 -0.00628745 0)
(-0.0321937 -0.00650915 0)
(-0.0303229 -0.00668834 0)
(-0.0284061 -0.00682275 0)
(-0.026456 -0.00691032 0)
(-0.0244854 -0.0069492 0)
(-0.022508 -0.00693781 0)
(-0.0205374 -0.00687488 0)
(-0.0185877 -0.00675947 0)
(-0.016673 -0.00659106 0)
(-0.0148075 -0.00636959 0)
(-0.0130051 -0.00609555 0)
(-0.0112796 -0.00577008 0)
(-0.00964412 -0.00539505 0)
(-0.0081111 -0.00497329 0)
(-0.00669205 -0.00450869 0)
(-0.00539725 -0.00400651 0)
(-0.00423547 -0.00347369 0)
(-0.0032136 -0.00291923 0)
(-0.00233629 -0.00235473 0)
(-0.00160563 -0.00179507 0)
(-0.00102073 -0.00125925 0)
(-0.000577191 -0.000771448 0)
(-0.000266527 -0.000362111 0)
(-7.91156e-05 -6.94156e-05 0)
(-7.57151e-06 5.56422e-05 0)
(-1.5985e-05 1.67341e-05 0)
(-0.000129898 0.00029485 0)
(-0.000403688 0.000747447 0)
(-0.00083248 0.00132178 0)
(-0.00141862 0.00197567 0)
(-0.00216634 0.00267478 0)
(-0.00307631 0.00339168 0)
(-0.00414617 0.00410477 0)
(-0.00537104 0.00479718 0)
(-0.0067439 0.00545586 0)
(-0.00825576 0.00607083 0)
(-0.00989604 0.0066346 0)
(-0.0116529 0.00714168 0)
(-0.0135133 0.0075882 0)
(-0.0154638 0.00797156 0)
(-0.0174899 0.00829026 0)
(-0.0195773 0.00854363 0)
(-0.021711 0.00873171 0)
(-0.0238763 0.00885511 0)
(-0.0260586 0.0089149 0)
(-0.0282433 0.00891254 0)
(-0.0304161 0.00884981 0)
(-0.0325634 0.00872874 0)
(-0.0346717 0.00855156 0)
(-0.036728 0.0083207 0)
(-0.0387201 0.00803872 0)
(-0.0406361 0.00770832 0)
(-0.042465 0.00733228 0)
(-0.0441962 0.00691347 0)
(-0.04582 0.00645486 0)
(-0.0473271 0.00595947 0)
(-0.0487092 0.00543038 0)
(-0.0499587 0.00487073 0)
(-0.0510686 0.00428372 0)
(-0.0520329 0.00367262 0)
(-0.0528461 0.00304072 0)
(-0.0535037 0.00239138 0)
(-0.054002 0.00172802 0)
(-0.0543381 0.00105411 0)
(-0.0545099 0.000373164 0)
(-0.0545162 -0.000311245 0)
(-0.0543567 -0.000995492 0)
(-0.0540319 -0.00167591 0)
(-0.0535431 -0.00234877 0)
(-0.0528927 -0.00301034 0)
(-0.0520839 -0.00365682 0)
(-0.0511208 -0.00428441 0)
(-0.0500083 -0.00488928 0)
(-0.0487523 -0.00546763 0)
(-0.0473597 -0.00601564 0)
(-0.045838 -0.00652955 0)
(-0.0441959 -0.00700564 0)
(-0.0424427 -0.00744026 0)
(-0.0405887 -0.00782986 0)
(-0.0386449 -0.00817102 0)
(-0.036623 -0.00846046 0)
(-0.0345356 -0.0086951 0)
(-0.0323958 -0.00887207 0)
(-0.0302175 -0.00898874 0)
(-0.0280148 -0.00904282 0)
(-0.0258026 -0.00903232 0)
(-0.0235958 -0.00895569 0)
(-0.0214099 -0.00881181 0)
(-0.0192603 -0.00860012 0)
(-0.0171624 -0.00832064 0)
(-0.0151315 -0.00797411 0)
(-0.0131825 -0.00756209 0)
(-0.0113296 -0.00708712 0)
(-0.00958657 -0.00655286 0)
(-0.00796596 -0.00596434 0)
(-0.0064791 -0.00532822 0)
(-0.00513579 -0.00465313 0)
(-0.00394401 -0.00395012 0)
(-0.00290955 -0.00323315 0)
(-0.00203582 -0.00251981 0)
(-0.00132355 -0.00183206 0)
(-0.000770271 -0.00119734 0)
(-0.000369851 -0.000649436 0)
(-0.000117331 -0.0002298 0)
(-1.3902e-05 7.66343e-06 0)
(-2.2255e-05 9.09844e-05 0)
(-0.000168796 0.000524462 0)
(-0.000510036 0.00113898 0)
(-0.00103225 0.00188027 0)
(-0.00173265 0.00270401 0)
(-0.00261259 0.00357345 0)
(-0.00367033 0.00445864 0)
(-0.00490143 0.00533558 0)
(-0.00629934 0.00618517 0)
(-0.00785558 0.00699237 0)
(-0.00955991 0.00774551 0)
(-0.0114006 0.00843568 0)
(-0.0133646 0.00905623 0)
(-0.015438 0.00960237 0)
(-0.0176059 0.0100709 0)
(-0.0198532 0.0104597 0)
(-0.022164 0.010768 0)
(-0.0245226 0.0109957 0)
(-0.0269131 0.0111434 0)
(-0.0293195 0.0112122 0)
(-0.0317264 0.011204 0)
(-0.0341183 0.0111208 0)
(-0.0364804 0.0109651 0)
(-0.0387982 0.0107396 0)
(-0.0410578 0.0104472 0)
(-0.0432458 0.0100912 0)
(-0.0453495 0.00967474 0)
(-0.0473568 0.00920138 0)
(-0.0492564 0.00867464 0)
(-0.0510376 0.00809822 0)
(-0.0526905 0.00747587 0)
(-0.054206 0.00681144 0)
(-0.0555759 0.00610884 0)
(-0.0567926 0.00537209 0)
(-0.0578495 0.00460524 0)
(-0.0587408 0.00381243 0)
(-0.0594616 0.00299786 0)
(-0.0600078 0.00216581 0)
(-0.0603762 0.00132061 0)
(-0.0605647 0.000466665 0)
(-0.0605719 -0.000391554 0)
(-0.0603975 -0.00124952 0)
(-0.060042 -0.00210264 0)
(-0.0595069 -0.00294629 0)
(-0.0587948 -0.00377576 0)
(-0.057909 -0.00458635 0)
(-0.0568541 -0.0053733 0)
(-0.0556354 -0.00613185 0)
(-0.0542594 -0.00685726 0)
(-0.0527333 -0.00754479 0)
(-0.0510655 -0.00818975 0)
(-0.0492652 -0.00878753 0)
(-0.0473426 -0.00933361 0)
(-0.0453088 -0.00982358 0)
(-0.0431756 -0.0102532 0)
(-0.0409559 -0.0106185 0)
(-0.038663 -0.0109156 0)
(-0.0363114 -0.0111409 0)
(-0.0339157 -0.0112914 0)
(-0.0314914 -0.0113642 0)
(-0.0290544 -0.0113569 0)
(-0.026621 -0.0112676 0)
(-0.0242077 -0.011095 0)
(-0.0218311 -0.0108386 0)
(-0.0195079 -0.0104985 0)
(-0.0172543 -0.0100756 0)
(-0.0150866 -0.00957207 0)
(-0.0130202 -0.00899101 0)
(-0.0110698 -0.008337 0)
(-0.00924921 -0.00761622 0)
(-0.00757079 -0.00683672 0)
(-0.00604554 -0.00600881 0)
(-0.00468265 -0.00514548 0)
(-0.00348931 -0.00426291 0)
(-0.00247051 -0.00338112 0)
(-0.00162889 -0.00252473 0)
(-0.000964209 -0.00172385 0)
(-0.000472962 -0.00101493 0)
(-0.000155005 -0.000441744 0)
(-1.99756e-05 -5.98441e-05 0)
(-2.82275e-05 0.000184858 0)
(-0.000206647 0.000806711 0)
(-0.00061457 0.00161092 0)
(-0.00122977 0.00254254 0)
(-0.0020444 0.00355593 0)
(-0.00305684 0.00461255 0)
(-0.00426274 0.0056805 0)
(-0.00565537 0.00673378 0)
(-0.00722633 0.00775136 0)
(-0.00896549 0.00871647 0)
(-0.0108612 0.00961587 0)
(-0.0129004 0.0104393 0)
(-0.015069 0.0111791 0)
(-0.0173518 0.0118296 0)
(-0.0197329 0.0123868 0)
(-0.0221961 0.0128484 0)
(-0.0247245 0.0132131 0)
(-0.0273012 0.0134808 0)
(-0.0299094 0.013652 0)
(-0.0325321 0.0137282 0)
(-0.0351527 0.0137114 0)
(-0.037755 0.0136039 0)
(-0.0403229 0.0134087 0)
(-0.0428411 0.013129 0)
(-0.0452947 0.0127683 0)
(-0.0476695 0.0123305 0)
(-0.0499518 0.0118194 0)
(-0.0521288 0.0112392 0)
(-0.0541883 0.0105943 0)
(-0.056119 0.00988899 0)
(-0.0579102 0.00912796 0)
(-0.0595522 0.00831582 0)
(-0.0610362 0.00745733 0)
(-0.0623542 0.00655736 0)
(-0.0634989 0.00562083 0)
(-0.0644643 0.00465279 0)
(-0.0652451 0.00365834 0)
(-0.0658368 0.00264268 0)
(-0.0662362 0.00161107 0)
(-0.0664409 0.000568887 0)
(-0.0664495 -0.000478451 0)
(-0.0662614 -0.00152544 0)
(-0.0658775 -0.00256649 0)
(-0.0652992 -0.00359599 0)
(-0.0645292 -0.00460823 0)
(-0.0635713 -0.00559749 0)
(-0.0624302 -0.00655801 0)
(-0.0611116 -0.00748403 0)
(-0.0596223 -0.00836979 0)
(-0.0579703 -0.00920956 0)
(-0.0561644 -0.00999767 0)
(-0.0542144 -0.0107285 0)
(-0.0521312 -0.0113967 0)
(-0.0499267 -0.0119969 0)
(-0.0476135 -0.012524 0)
(-0.0452052 -0.0129731 0)
(-0.0427162 -0.0133397 0)
(-0.0401617 -0.0136195 0)
(-0.0375576 -0.0138088 0)
(-0.0349203 -0.0139041 0)
(-0.0322668 -0.0139027 0)
(-0.0296143 -0.0138025 0)
(-0.0269805 -0.0136018 0)
(-0.0243831 -0.0133 0)
(-0.0218399 -0.0128975 0)
(-0.0193684 -0.0123954 0)
(-0.0169858 -0.0117963 0)
(-0.0147087 -0.011104 0)
(-0.012553 -0.0103239 0)
(-0.0105335 -0.00946343 0)
(-0.00866401 -0.00853192 0)
(-0.00695669 -0.00754128 0)
(-0.00542215 -0.00650633 0)
(-0.00406913 -0.00544527 0)
(-0.00290441 -0.0043803 0)
(-0.00193276 -0.00333828 0)
(-0.00115637 -0.00235157 0)
(-0.000574473 -0.00145861 0)
(-0.000191693 -0.000704778 0)
(-2.57529e-05 -0.000146361 0)
(-3.39067e-05 0.000297686 0)
(-0.000243266 0.00114052 0)
(-0.000716567 0.00216223 0)
(-0.00142357 0.00330786 0)
(-0.0023515 0.004531 0)
(-0.00349579 0.00579189 0)
(-0.00484937 0.00705715 0)
(-0.00640312 0.00829916 0)
(-0.00814658 0.00949529 0)
(-0.0100679 0.0106273 0)
(-0.0121538 0.0116805 0)
(-0.0143899 0.0126435 0)
(-0.0167608 0.0135076 0)
(-0.0192501 0.0142663 0)
(-0.0218409 0.0149152 0)
(-0.0245157 0.0154513 0)
(-0.0272568 0.0158732 0)
(-0.0300463 0.0161807 0)
(-0.0328663 0.0163743 0)
(-0.0356988 0.0164556 0)
(-0.0385263 0.0164269 0)
(-0.0413317 0.016291 0)
(-0.0440981 0.0160513 0)
(-0.0468091 0.0157115 0)
(-0.0494491 0.0152757 0)
(-0.052003 0.0147483 0)
(-0.0544565 0.0141341 0)
(-0.0567958 0.0134379 0)
(-0.0590082 0.0126648 0)
(-0.0610816 0.0118201 0)
(-0.0630048 0.0109091 0)
(-0.0647676 0.0099375 0)
(-0.0663604 0.0089108 0)
(-0.067775 0.00783481 0)
(-0.0690036 0.00671541 0)
(-0.0700398 0.00555857 0)
(-0.070878 0.00437038 0)
(-0.0715135 0.003157 0)
(-0.0719428 0.00192471 0)
(-0.0721634 0.000679881 0)
(-0.0721738 -0.000571042 0)
(-0.0719735 -0.00182151 0)
(-0.0715631 -0.0030649 0)
(-0.0709445 -0.00429453 0)
(-0.0701203 -0.00550363 0)
(-0.0690944 -0.00668541 0)
(-0.0678719 -0.00783305 0)
(-0.0664589 -0.00893969 0)
(-0.0648625 -0.00999852 0)
(-0.0630911 -0.0110028 0)
(-0.0611539 -0.0119457 0)
(-0.0590615 -0.0128207 0)
(-0.0568252 -0.0136214 0)
(-0.0544576 -0.0143414 0)
(-0.0519721 -0.0149748 0)
(-0.049383 -0.0155158 0)
(-0.0467056 -0.015959 0)
(-0.0439559 -0.0162995 0)
(-0.0411507 -0.0165329 0)
(-0.0383072 -0.0166551 0)
(-0.0354436 -0.016663 0)
(-0.032578 -0.0165539 0)
(-0.0297291 -0.0163263 0)
(-0.0269158 -0.0159793 0)
(-0.0241568 -0.0155133 0)
(-0.0214708 -0.0149298 0)
(-0.0188761 -0.0142318 0)
(-0.0163904 -0.0134239 0)
(-0.0140308 -0.0125122 0)
(-0.0118135 -0.0115052 0)
(-0.00975336 -0.0104136 0)
(-0.00786409 -0.00925068 0)
(-0.0061578 -0.00803302 0)
(-0.00464495 -0.00678062 0)
(-0.00333428 -0.00551758 0)
(-0.00223282 -0.00427268 0)
(-0.00134528 -0.00308005 0)
(-0.000673675 -0.00197967 0)
(-0.000227208 -0.00101792 0)
(-3.12342e-05 -0.000251246 0)
(-3.93034e-05 0.000428768 0)
(-0.000278613 0.00152454 0)
(-0.000815742 0.00279143 0)
(-0.0016129 0.00417485 0)
(-0.00265268 0.00562807 0)
(-0.00392756 0.00711055 0)
(-0.00542776 0.00858781 0)
(-0.00714169 0.010031 0)
(-0.00905672 0.0114161 0)
(-0.0111591 0.0127237 0)
(-0.013434 0.0139379 0)
(-0.0158654 0.0150463 0)
(-0.0184366 0.0160393 0)
(-0.0211301 0.0169097 0)
(-0.0239277 0.0176525 0)
(-0.0268108 0.0182644 0)
(-0.0297608 0.0187438 0)
(-0.0327587 0.0190902 0)
(-0.0357855 0.0193045 0)
(-0.0388226 0.0193884 0)
(-0.0418515 0.0193443 0)
(-0.0448541 0.0191756 0)
(-0.0478128 0.0188861 0)
(-0.0507104 0.0184801 0)
(-0.0535305 0.0179623 0)
(-0.0562572 0.0173379 0)
(-0.0588755 0.0166122 0)
(-0.0613711 0.0157909 0)
(-0.0637305 0.0148801 0)
(-0.0659411 0.0138856 0)
(-0.0679911 0.012814 0)
(-0.0698697 0.0116715 0)
(-0.0715672 0.0104648 0)
(-0.0730745 0.00920055 0)
(-0.0743837 0.00788569 0)
(-0.075488 0.00652716 0)
(-0.0763816 0.00513204 0)
(-0.0770595 0.00370756 0)
(-0.077518 0.00226102 0)
(-0.0777545 0.000799866 0)
(-0.0777674 -0.00066838 0)
(-0.0775561 -0.00213608 0)
(-0.0771213 -0.00359551 0)
(-0.0764649 -0.00503887 0)
(-0.0755896 -0.00645829 0)
(-0.0744997 -0.00784583 0)
(-0.0732002 -0.00919354 0)
(-0.0716975 -0.0104935 0)
(-0.0699992 -0.0117376 0)
(-0.068114 -0.0129182 0)
(-0.0660515 -0.0140273 0)
(-0.0638228 -0.0150573 0)
(-0.0614399 -0.0160006 0)
(-0.0589157 -0.01685 0)
(-0.0562644 -0.0175986 0)
(-0.053501 -0.0182396 0)
(-0.0506415 -0.0187668 0)
(-0.0477027 -0.0191745 0)
(-0.0447021 -0.0194575 0)
(-0.0416581 -0.0196112 0)
(-0.0385894 -0.019632 0)
(-0.0355154 -0.0195169 0)
(-0.0324557 -0.019264 0)
(-0.0294301 -0.0188724 0)
(-0.0264584 -0.0183425 0)
(-0.0235605 -0.0176762 0)
(-0.0207556 -0.0168767 0)
(-0.0180629 -0.0159492 0)
(-0.0155006 -0.0149008 0)
(-0.0130861 -0.0137409 0)
(-0.0108357 -0.0124813 0)
(-0.00876475 -0.0111368 0)
(-0.00688692 -0.00972544 0)
(-0.00521453 -0.00826876 0)
(-0.00375839 -0.00679254 0)
(-0.00252788 -0.00532719 0)
(-0.00153028 -0.00390825 0)
(-0.0007703 -0.00257684 0)
(-0.000261521 -0.00137996 0)
(-3.644e-05 -0.000373828 0)
(-4.44507e-05 0.000577429 0)
(-0.000312732 0.00195736 0)
(-0.000912064 0.00349682 0)
(-0.00179757 0.00514181 0)
(-0.00294743 0.00684557 0)
(-0.00435132 0.00856713 0)
(-0.00599672 0.0102712 0)
(-0.00786955 0.0119281 0)
(-0.00995497 0.0135127 0)
(-0.0122373 0.0150045 0)
(-0.0146998 0.0163868 0)
(-0.0173252 0.0176462 0)
(-0.020095 0.0187723 0)
(-0.0229906 0.0197574 0)
(-0.0259926 0.020596 0)
(-0.0290813 0.0212845 0)
(-0.032237 0.0218211 0)
(-0.0354396 0.0222054 0)
(-0.0386695 0.0224383 0)
(-0.041907 0.0225217 0)
(-0.0451327 0.0224585 0)
(-0.0483278 0.0222523 0)
(-0.0514738 0.0219076 0)
(-0.0545528 0.0214292 0)
(-0.0575478 0.0208225 0)
(-0.0604421 0.0200934 0)
(-0.0632201 0.019248 0)
(-0.0658669 0.0182929 0)
(-0.0683685 0.0172348 0)
(-0.0707116 0.0160807 0)
(-0.0728841 0.0148378 0)
(-0.0748747 0.0135136 0)
(-0.0766731 0.0121155 0)
(-0.07827 0.0106514 0)
(-0.0796573 0.00912902 0)
(-0.0808276 0.00755646 0)
(-0.081775 0.00594185 0)
(-0.0824943 0.00429347 0)
(-0.0829816 0.00261975 0)
(-0.0832341 0.000929219 0)
(-0.0832502 -0.000769467 0)
(-0.0830292 -0.00246754 0)
(-0.082572 -0.00415612 0)
(-0.0818802 -0.00582624 0)
(-0.0809568 -0.00746887 0)
(-0.0798061 -0.0090749 0)
(-0.0784335 -0.0106352 0)
(-0.0768455 -0.0121406 0)
(-0.0750499 -0.0135821 0)
(-0.0730557 -0.0149505 0)
(-0.0708732 -0.0162368 0)
(-0.0685135 -0.0174324 0)
(-0.0659893 -0.0185285 0)
(-0.063314 -0.0195169 0)
(-0.0605024 -0.0203895 0)
(-0.05757 -0.0211387 0)
(-0.0545336 -0.0217574 0)
(-0.0514106 -0.0222389 0)
(-0.0482195 -0.0225775 0)
(-0.0449792 -0.0227678 0)
(-0.0417096 -0.0228057 0)
(-0.0384308 -0.0226877 0)
(-0.0351633 -0.0224116 0)
(-0.0319281 -0.0219766 0)
(-0.028746 -0.0213829 0)
(-0.0256379 -0.0206326 0)
(-0.0226244 -0.0197294 0)
(-0.0197256 -0.018679 0)
(-0.0169612 -0.0174891 0)
(-0.01435 -0.0161701 0)
(-0.0119098 -0.0147349 0)
(-0.0096574 -0.0131995 0)
(-0.00760838 -0.0115832 0)
(-0.00577696 -0.00990912 0)
(-0.00417612 -0.00820437 0)
(-0.0028176 -0.0065007 0)
(-0.00171123 -0.00483483 0)
(-0.000864366 -0.00324867 0)
(-0.000294695 -0.00178961 0)
(-4.14008e-05 -0.000513464 0)
(-4.9376e-05 0.000743035 0)
(-0.000345726 0.00243761 0)
(-0.00100567 0.00427666 0)
(-0.00197768 0.00620688 0)
(-0.00323579 0.00818173 0)
(-0.00476692 0.01016 0)
(-0.00655592 0.012106 0)
(-0.00858622 0.0139892 0)
(-0.0108407 0.0157838 0)
(-0.0133017 0.0174686 0)
(-0.0159506 0.0190258 0)
(-0.0187685 0.0204415 0)
(-0.0217355 0.0217048 0)
(-0.0248315 0.0228073 0)
(-0.0280359 0.0237433 0)
(-0.031328 0.0245089 0)
(-0.0346868 0.0251022 0)
(-0.0380915 0.0255228 0)
(-0.0415212 0.0257719 0)
(-0.0449556 0.0258516 0)
(-0.0483745 0.0257651 0)
(-0.0517581 0.0255167 0)
(-0.0550873 0.0251112 0)
(-0.0583437 0.0245541 0)
(-0.0615092 0.0238516 0)
(-0.0645669 0.0230103 0)
(-0.0675004 0.022037 0)
(-0.0702942 0.0209393 0)
(-0.0729339 0.0197247 0)
(-0.0754058 0.0184013 0)
(-0.0776972 0.016977 0)
(-0.0797965 0.0154605 0)
(-0.0816929 0.0138601 0)
(-0.083377 0.0121848 0)
(-0.0848402 0.0104433 0)
(-0.0860749 0.00864487 0)
(-0.0870749 0.0067987 0)
(-0.0878349 0.00491419 0)
(-0.0883508 0.00300088 0)
(-0.0886197 0.00106846 0)
(-0.0886399 -0.00087324 0)
(-0.0884106 -0.00281428 0)
(-0.0879326 -0.00474461 0)
(-0.0872078 -0.00665404 0)
(-0.086239 -0.00853233 0)
(-0.0850308 -0.0103692 0)
(-0.0835885 -0.0121542 0)
(-0.081919 -0.013877 0)
(-0.0800302 -0.0155274 0)
(-0.0779315 -0.0170949 0)
(-0.0756333 -0.0185695 0)