/*--------------------------------*- C++ -*----------------------------------*\
  =========                 |
  \\      /  F ield         | OpenFOAM: The Open Source CFD Toolbox
   \\    /   O peration     | Website:  https://openfoam.org
    \\  /    A nd           | Version:  7
     \\/     M anipulation  |
\*---------------------------------------------------------------------------*/
FoamFile
{
    version     2.0;
    format      ascii;
    class       surfaceScalarField;
    location    "0.2375";
    object      phi;
}
// * * * * * * * * * * * * * * * * * * * * * * * * * * * * * * * * * * * * * //

dimensions      [0 3 -1 0 0 0 0];

internalField   nonuniform List<scalar> 
50880
(
5.27737e-12
-7.01938e-12
3.592e-11
-3.06384e-11
8.1131e-11
-4.52052e-11
1.3092e-10
-4.97814e-11
1.78191e-10
-4.72844e-11
2.18017e-10
-3.9824e-11
2.46993e-10
-2.89798e-11
2.62821e-10
-1.58258e-11
2.6398e-10
-1.1665e-12
2.4953e-10
1.44578e-11
2.18908e-10
3.06315e-11
1.71846e-10
4.70542e-11
1.08326e-10
6.35205e-11
2.84821e-11
7.98522e-11
-6.74345e-11
9.59104e-11
-1.79038e-10
1.11611e-10
-3.05898e-10
1.26866e-10
-4.47509e-10
1.41613e-10
-6.03323e-10
1.55809e-10
-7.72746e-10
1.69424e-10
-9.55171e-10
1.82422e-10
-1.14996e-09
1.94784e-10
-1.35646e-09
2.06497e-10
-1.574e-09
2.17547e-10
-1.80192e-09
2.27926e-10
-2.03955e-09
2.37629e-10
-2.28621e-09
2.46658e-10
-2.54122e-09
2.55013e-10
-2.80392e-09
2.62695e-10
-3.07363e-09
2.6971e-10
-3.3497e-09
2.76064e-10
-3.63145e-09
2.81762e-10
-3.91826e-09
2.86808e-10
-4.20948e-09
2.91213e-10
-4.50447e-09
2.94988e-10
-4.80261e-09
2.98143e-10
-5.1033e-09
3.00686e-10
-5.40593e-09
3.02629e-10
-5.70991e-09
3.03981e-10
-6.01466e-09
3.04754e-10
-6.31962e-09
3.0496e-10
-6.62423e-09
3.04612e-10
-6.92795e-09
3.03719e-10
-7.23024e-09
3.02296e-10
-7.5306e-09
3.00355e-10
-7.82851e-09
2.9791e-10
-8.12349e-09
2.94972e-10
-8.41504e-09
2.91554e-10
-8.70271e-09
2.87667e-10
-8.98603e-09
2.83326e-10
-9.26457e-09
2.78544e-10
-9.53791e-09
2.73333e-10
-9.80561e-09
2.67707e-10
-1.00673e-08
2.61678e-10
-1.03225e-08
2.55259e-10
-1.0571e-08
2.48463e-10
-1.08123e-08
2.41305e-10
-1.10461e-08
2.33797e-10
-1.12721e-08
2.25952e-10
-1.14899e-08
2.17785e-10
-1.16992e-08
2.09308e-10
-1.18997e-08
2.00534e-10
-1.20912e-08
1.91477e-10
-1.22733e-08
1.8215e-10
-1.24459e-08
1.72566e-10
-1.26086e-08
1.6274e-10
-1.27613e-08
1.52684e-10
-1.29037e-08
1.42414e-10
-1.30357e-08
1.31943e-10
-1.31569e-08
1.21284e-10
-1.32674e-08
1.10451e-10
-1.33669e-08
9.94582e-11
-1.34552e-08
8.83208e-11
-1.35322e-08
7.70531e-11
-1.35979e-08
6.56695e-11
-1.36521e-08
5.4184e-11
-1.36947e-08
4.26109e-11
-1.37257e-08
3.09651e-11
-1.37449e-08
1.92619e-11
-1.37524e-08
7.517e-12
-1.37482e-08
-4.25433e-12
-1.37321e-08
-1.60371e-11
-1.37043e-08
-2.78159e-11
-1.36648e-08
-3.95755e-11
-1.36135e-08
-5.12999e-11
-1.35505e-08
-6.2973e-11
-1.34759e-08
-7.4578e-11
-1.33898e-08
-8.6099e-11
-1.32923e-08
-9.75198e-11
-1.31835e-08
-1.08824e-10
-1.30635e-08
-1.19995e-10
-1.29325e-08
-1.31017e-10
-1.27906e-08
-1.41872e-10
-1.2638e-08
-1.52544e-10
-1.2475e-08
-1.63015e-10
-1.23018e-08
-1.73269e-10
-1.21185e-08
-1.83289e-10
-1.19254e-08
-1.93057e-10
-1.17229e-08
-2.02556e-10
-1.15111e-08
-2.1177e-10
-1.12904e-08
-2.20681e-10
-1.10611e-08
-2.29272e-10
-1.08236e-08
-2.37527e-10
-1.05782e-08
-2.45427e-10
-1.03252e-08
-2.52958e-10
-1.00651e-08
-2.60101e-10
-9.79827e-09
-2.66841e-10
-9.52511e-09
-2.7316e-10
-9.24607e-09
-2.79044e-10
-8.9616e-09
-2.84475e-10
-8.67216e-09
-2.89439e-10
-8.37824e-09
-2.93919e-10
-8.08034e-09
-2.97901e-10
-7.77897e-09
-3.01371e-10
-7.47465e-09
-3.04312e-10
-7.16794e-09
-3.06713e-10
-6.85938e-09
-3.08559e-10
-6.54955e-09
-3.09837e-10
-6.23901e-09
-3.10534e-10
-5.92837e-09
-3.10638e-10
-5.61823e-09
-3.10139e-10
-5.30921e-09
-3.09026e-10
-5.00192e-09
-3.07287e-10
-4.69701e-09
-3.04915e-10
-4.39511e-09
-3.01899e-10
-4.09687e-09
-2.98233e-10
-3.80296e-09
-2.9391e-10
-3.51404e-09
-2.88923e-10
-3.23077e-09
-2.83269e-10
-2.95383e-09
-2.76942e-10
-2.68389e-09
-2.69941e-10
-2.42162e-09
-2.62263e-10
-2.16771e-09
-2.53911e-10
-1.92282e-09
-2.44885e-10
-1.68763e-09
-2.3519e-10
-1.4628e-09
-2.24832e-10
-1.24898e-09
-2.1382e-10
-1.04682e-09
-2.02165e-10
-8.56935e-10
-1.89881e-10
-6.79946e-10
-1.76989e-10
-5.16436e-10
-1.6351e-10
-3.66962e-10
-1.49474e-10
-2.32044e-10
-1.34917e-10
-1.12158e-10
-1.19885e-10
-7.72566e-12
-1.04433e-10
8.09011e-11
-8.86274e-11
1.53456e-10
-7.25555e-11
2.09781e-10
-5.63251e-11
2.49856e-10
-4.00739e-11
2.73834e-10
-2.39782e-11
2.82102e-10
-8.26725e-12
2.75346e-10
6.75602e-12
2.54661e-10
2.06848e-11
2.217e-10
3.29615e-11
1.78893e-10
4.28072e-11
1.29759e-10
4.91333e-11
7.93142e-11
5.04457e-11
3.46229e-11
4.46916e-11
5.34067e-12
2.92825e-11
5.3409e-12
2.99e-11
-3.69191e-11
1.01221e-10
-1.01964e-10
1.95696e-10
-1.39674e-10
2.96132e-10
-1.50219e-10
3.88139e-10
-1.3926e-10
4.60451e-10
-1.12162e-10
5.04695e-10
-7.31982e-11
5.1466e-10
-2.5802e-11
4.86009e-10
2.74876e-11
4.1575e-10
8.47201e-11
3.01971e-10
1.44402e-10
1.4361e-10
2.05422e-10
-5.9768e-11
2.66897e-10
-3.08084e-10
3.28151e-10
-6.00838e-10
3.88664e-10
-9.37239e-10
4.48012e-10
-1.31624e-09
5.05858e-10
-1.73658e-09
5.61952e-10
-2.19684e-09
6.16085e-10
-2.6955e-09
6.68089e-10
-3.23092e-09
7.1784e-10
-3.80138e-09
7.65242e-10
-4.4051e-09
8.10221e-10
-5.04027e-09
8.52716e-10
-5.70504e-09
8.92689e-10
-6.39753e-09
9.30116e-10
-7.11584e-09
9.64978e-10
-7.85809e-09
9.97268e-10
-8.62239e-09
1.02699e-09
-9.40683e-09
1.05415e-09
-1.02095e-08
1.07877e-09
-1.10286e-08
1.10087e-09
-1.18623e-08
1.12046e-09
-1.27087e-08
1.13758e-09
-1.35659e-08
1.15226e-09
-1.44323e-08
1.16454e-09
-1.53061e-08
1.17444e-09
-1.61855e-08
1.18201e-09
-1.70688e-08
1.18729e-09
-1.79544e-08
1.19033e-09
-1.88406e-08
1.19116e-09
-1.97258e-08
1.18982e-09
-2.06084e-08
1.18637e-09
-2.1487e-08
1.18085e-09
-2.23599e-08
1.1733e-09
-2.32258e-08
1.16379e-09
-2.40831e-08
1.15234e-09
-2.49306e-08
1.13902e-09
-2.57668e-08
1.12387e-09
-2.65904e-08
1.10694e-09
-2.74002e-08
1.08829e-09
-2.81948e-08
1.06796e-09
-2.89731e-08
1.046e-09
-2.97339e-08
1.02246e-09
-3.0476e-08
9.97397e-10
-3.11984e-08
9.70863e-10
-3.19e-08
9.42904e-10
-3.25798e-08
9.13574e-10
-3.32368e-08
8.82924e-10
-3.387e-08
8.51007e-10
-3.44785e-08
8.17875e-10
-3.50616e-08
7.8358e-10
-3.56183e-08
7.48176e-10
-3.61479e-08
7.11714e-10
-3.66495e-08
6.74248e-10
-3.71226e-08
6.35831e-10
-3.75665e-08
5.96517e-10
-3.79804e-08
5.56361e-10
-3.83639e-08
5.15416e-10
-3.87163e-08
4.73738e-10
-3.90373e-08
4.3138e-10
-3.93262e-08
3.88399e-10
-3.95827e-08
3.44851e-10
-3.98065e-08
3.00792e-10
-3.99971e-08
2.5628e-10
-4.01543e-08
2.11372e-10
-4.02778e-08
1.66124e-10
-4.03674e-08
1.20596e-10
-4.0423e-08
7.48459e-11
-4.04444e-08
2.89334e-11
-4.04316e-08
-1.70808e-11
-4.03845e-08
-6.31364e-11
-4.03031e-08
-1.09173e-10
-4.01876e-08
-1.55128e-10
-4.00379e-08
-2.00942e-10
-3.98544e-08
-2.4655e-10
-3.9637e-08
-2.91891e-10
-3.93862e-08
-3.36899e-10
-3.91023e-08
-3.81512e-10
-3.87854e-08
-4.25664e-10
-3.84361e-08
-4.69291e-10
-3.80548e-08
-5.12328e-10
-3.7642e-08
-5.54709e-10
-3.71981e-08
-5.96369e-10
-3.67239e-08
-6.37241e-10
-3.62199e-08
-6.77259e-10
-3.56869e-08
-7.16357e-10
-3.51255e-08
-7.54467e-10
-3.45365e-08
-7.91523e-10
-3.39208e-08
-8.27459e-10
-3.32793e-08
-8.62209e-10
-3.26128e-08
-8.95707e-10
-3.19225e-08
-9.27886e-10
-3.12092e-08
-9.5868e-10
-3.04742e-08
-9.88024e-10
-2.97184e-08
-1.01585e-09
-2.89431e-08
-1.04211e-09
-2.81496e-08
-1.06672e-09
-2.7339e-08
-1.08962e-09
-2.65127e-08
-1.11077e-09
-2.56721e-08
-1.13008e-09
-2.48185e-08
-1.14751e-09
-2.39534e-08
-1.163e-09
-2.30783e-08
-1.17649e-09
-2.21946e-08
-1.18792e-09
-2.13041e-08
-1.19725e-09
-2.04082e-08
-1.20442e-09
-1.95087e-08
-1.20938e-09
-1.86072e-08
-1.21208e-09
-1.77053e-08
-1.21248e-09
-1.68049e-08
-1.21053e-09
-1.59078e-08
-1.2062e-09
-1.50156e-08
-1.19945e-09
-1.41303e-08
-1.19024e-09
-1.32536e-08
-1.17854e-09
-1.23875e-08
-1.16433e-09
-1.15339e-08
-1.14758e-09
-1.06945e-08
-1.12827e-09
-9.87142e-09
-1.10638e-09
-9.06645e-09
-1.08191e-09
-8.28153e-09
-1.05485e-09
-7.5186e-09
-1.0252e-09
-6.77954e-09
-9.92966e-10
-6.06626e-09
-9.58162e-10
-5.38064e-09
-9.20811e-10
-4.72453e-09
-8.80945e-10
-4.09974e-09
-8.38606e-10
-3.50806e-09
-7.93848e-10
-2.9512e-09
-7.46739e-10
-2.43083e-09
-6.97365e-10
-1.94851e-09
-6.4583e-10
-1.50572e-09
-5.92262e-10
-1.10382e-09
-5.3682e-10
-7.44006e-10
-4.79695e-10
-4.27314e-10
-4.21123e-10
-1.54545e-10
-3.61394e-10
7.37659e-11
-3.00866e-10
2.57421e-10
-2.39981e-10
3.9664e-10
-1.79293e-10
4.92165e-10
-1.19503e-10
5.45396e-10
-6.14986e-11
5.58573e-10
-6.42062e-12
5.35003e-10
4.42537e-11
4.79369e-10
8.85962e-11
3.98097e-10
1.2408e-10
2.99806e-10
1.47424e-10
1.95754e-10
1.54498e-10
1.00082e-10
1.40364e-10
2.92615e-11
1.00103e-10
3.46028e-11
4.47597e-11
-8.16726e-11
1.39122e-10
-1.96331e-10
2.56449e-10
-2.57001e-10
3.75015e-10
-2.68784e-10
4.76499e-10
-2.40757e-10
5.46033e-10
-1.81672e-10
5.71892e-10
-9.90762e-11
5.45171e-10
9.22183e-13
4.5926e-10
1.13413e-10
3.09409e-10
2.34551e-10
9.24908e-11
3.61334e-10
-1.93463e-10
4.91382e-10
-5.49378e-10
6.22819e-10
-9.75383e-10
7.54165e-10
-1.47096e-09
8.84253e-10
-2.03509e-09
1.01213e-09
-2.66629e-09
1.13705e-09
-3.36275e-09
1.25842e-09
-4.12241e-09
1.37574e-09
-4.94294e-09
1.48862e-09
-5.82188e-09
1.59678e-09
-6.75659e-09
1.69995e-09
-7.74433e-09
1.79796e-09
-8.78227e-09
1.89066e-09
-9.86752e-09
1.97794e-09
-1.09971e-08
2.05973e-09
-1.21681e-08
2.13598e-09
-1.33775e-08
2.20666e-09
-1.46223e-08
2.27177e-09
-1.58995e-08
2.33131e-09
-1.7206e-08
2.3853e-09
-1.85389e-08
2.43378e-09
-1.98953e-08
2.4768e-09
-2.12721e-08
2.51442e-09
-2.26665e-08
2.54668e-09
-2.40756e-08
2.57367e-09
-2.54966e-08
2.59545e-09
-2.69267e-08
2.6121e-09
-2.83632e-08
2.62372e-09
-2.98032e-08
2.63039e-09
-3.12443e-08
2.63221e-09
-3.26837e-08
2.62926e-09
-3.4119e-08
2.62164e-09
-3.55476e-08
2.60946e-09
-3.69671e-08
2.59282e-09
-3.83752e-08
2.57182e-09
-3.97694e-08
2.54657e-09
-4.11475e-08
2.51716e-09
-4.25074e-08
2.48372e-09
-4.38468e-08
2.44635e-09
-4.51636e-08
2.40515e-09
-4.64559e-08
2.36024e-09
-4.77217e-08
2.31173e-09
-4.89589e-08
2.25974e-09
-5.01659e-08
2.20437e-09
-5.13408e-08
2.14573e-09
-5.24818e-08
2.08395e-09
-5.35874e-08
2.01912e-09
-5.46558e-08
1.95138e-09
-5.56857e-08
1.88083e-09
-5.66754e-08
1.80759e-09
-5.76236e-08
1.73178e-09
-5.85289e-08
1.65351e-09
-5.93901e-08
1.57289e-09
-6.02059e-08
1.49005e-09
-6.09752e-08
1.40511e-09
-6.16968e-08
1.31819e-09
-6.23699e-08
1.22939e-09
-6.29933e-08
1.13886e-09
-6.35663e-08
1.0467e-09
-6.40879e-08
9.53036e-10
-6.45575e-08
8.57997e-10
-6.49744e-08
7.61706e-10
-6.53379e-08
6.64287e-10
-6.56475e-08
5.65866e-10
-6.59027e-08
4.6657e-10
-6.61031e-08
3.66528e-10
-6.62483e-08
2.65869e-10
-6.63382e-08
1.64725e-10
-6.63725e-08
6.32267e-11
-6.63511e-08
-3.8493e-11
-6.62739e-08
-1.403e-10
-6.6141e-08
-2.4206e-10
-6.59525e-08
-3.43635e-10
-6.57086e-08
-4.44888e-10
-6.54095e-08
-5.45682e-10
-6.50555e-08
-6.45876e-10
-6.46471e-08
-7.45329e-10
-6.41847e-08
-8.43901e-10
-6.36689e-08
-9.41448e-10
-6.31003e-08
-1.03783e-09
-6.24798e-08
-1.13289e-09
-6.1808e-08
-1.2265e-09
-6.10858e-08
-1.31851e-09
-6.03143e-08
-1.40877e-09
-5.94944e-08
-1.49714e-09
-5.86273e-08
-1.58346e-09
-5.77142e-08
-1.6676e-09
-5.67563e-08
-1.7494e-09
-5.5755e-08
-1.82872e-09
-5.47118e-08
-1.90542e-09
-5.36282e-08
-1.97934e-09
-5.25058e-08
-2.05034e-09
-5.13462e-08
-2.11828e-09
-5.01512e-08
-2.18302e-09
-4.89226e-08
-2.2444e-09
-4.76624e-08
-2.3023e-09
-4.63726e-08
-2.35657e-09
-4.50551e-08
-2.40708e-09
-4.37122e-08
-2.4537e-09
-4.2346e-08
-2.49628e-09
-4.09588e-08
-2.5347e-09
-3.95529e-08
-2.56884e-09
-3.81309e-08
-2.59857e-09
-3.6695e-08
-2.62377e-09
-3.5248e-08
-2.64432e-09
-3.37922e-08
-2.66012e-09
-3.23306e-08
-2.67106e-09
-3.08656e-08
-2.67703e-09
-2.94002e-08
-2.67794e-09
-2.7937e-08
-2.67369e-09
-2.6479e-08
-2.6642e-09
-2.5029e-08
-2.6494e-09
-2.35901e-08
-2.6292e-09
-2.21651e-08
-2.60355e-09
-2.0757e-08
-2.57238e-09
-1.93689e-08
-2.53566e-09
-1.80039e-08
-2.49334e-09
-1.66649e-08
-2.44539e-09
-1.5355e-08
-2.3918e-09
-1.40773e-08
-2.33256e-09
-1.28348e-08
-2.26768e-09
-1.16306e-08
-2.19719e-09
-1.04676e-08
-2.12112e-09
-9.34888e-09
-2.03954e-09
-8.2773e-09
-1.95253e-09
-7.25572e-09
-1.86019e-09
-6.28691e-09
-1.76266e-09
-5.37354e-09
-1.6601e-09
-4.51818e-09
-1.55273e-09
-3.72322e-09
-1.44079e-09
-2.9909e-09
-1.32458e-09
-2.32325e-09
-1.20448e-09
-1.72201e-09
-1.08093e-09
-1.18866e-09
-9.54478e-10
-7.24267e-10
-8.25787e-10
-3.2947e-10
-6.95663e-10
-4.35093e-12
-5.65099e-10
2.51677e-10
-4.35321e-10
4.40021e-10
-3.07847e-10
5.63094e-10
-1.84572e-10
6.2455e-10
-6.7877e-11
6.29563e-10
3.924e-11
5.85168e-10
1.32992e-10
5.00637e-10
2.08612e-10
3.87876e-10
2.60184e-10
2.61779e-10
2.80595e-10
1.40373e-10
2.61771e-10
4.46645e-11
1.95811e-10
7.92681e-11
4.96231e-11
-1.31299e-10
1.50126e-10
-2.96829e-10
2.68884e-10
-3.75747e-10
3.8065e-10
-3.80559e-10
4.64609e-10
-3.24699e-10
5.03642e-10
-2.20718e-10
4.84062e-10
-7.94827e-11
3.95084e-10
8.98987e-11
2.28513e-10
2.79982e-10
-2.16897e-11
4.84751e-10
-3.59727e-10
6.99371e-10
-7.88302e-10
9.19944e-10
-1.30885e-09
1.14335e-09
-1.92174e-09
1.36707e-09
-2.62654e-09
1.58906e-09
-3.4221e-09
1.80769e-09
-4.30665e-09
2.02161e-09
-5.27799e-09
2.22977e-09
-6.33353e-09
2.43126e-09
-7.47031e-09
2.62541e-09
-8.68516e-09
2.81163e-09
-9.97467e-09
2.98947e-09
-1.13353e-08
3.15857e-09
-1.27633e-08
3.31866e-09
-1.42549e-08
3.46952e-09
-1.58061e-08
3.61099e-09
-1.74131e-08
3.74297e-09
-1.90718e-08
3.86539e-09
-2.07783e-08
3.97822e-09
-2.25284e-08
4.08146e-09
-2.43183e-08
4.17513e-09
-2.61438e-08
4.25927e-09
-2.80009e-08
4.33396e-09
-2.98858e-08
4.39928e-09
-3.17944e-08
4.45533e-09
-3.3723e-08
4.50221e-09
-3.56676e-08
4.54005e-09
-3.76245e-08
4.56898e-09
-3.95899e-08
4.58915e-09
-4.15602e-08
4.6007e-09
-4.35318e-08
4.60379e-09
-4.55011e-08
4.59857e-09
-4.74646e-08
4.58521e-09
-4.94191e-08
4.56389e-09
-5.1361e-08
4.53478e-09
-5.32873e-08
4.49806e-09
-5.51946e-08
4.4539e-09
-5.70799e-08
4.40249e-09
-5.89402e-08
4.34403e-09
-6.07726e-08
4.27868e-09
-6.25741e-08
4.20665e-09
-6.4342e-08
4.12813e-09
-6.60736e-08
4.04331e-09
-6.77662e-08
3.95238e-09
-6.94174e-08
3.85554e-09
-7.10246e-08
3.75299e-09
-7.25856e-08
3.64492e-09
-7.4098e-08
3.53153e-09
-7.55596e-08
3.41303e-09
-7.69684e-08
3.28961e-09
-7.83223e-08
3.16149e-09
-7.96194e-08
3.02885e-09
-8.08578e-08
2.8919e-09
-8.20357e-08
2.75086e-09
-8.31516e-08
2.60592e-09
-8.42038e-08
2.4573e-09
-8.51908e-08
2.3052e-09
-8.61113e-08
2.14984e-09
-8.69638e-08
1.99142e-09
-8.77473e-08
1.83016e-09
-8.84605e-08
1.66628e-09
-8.91025e-08
1.49998e-09
-8.96723e-08
1.3315e-09
-9.01691e-08
1.16105e-09
-9.0592e-08
9.88845e-10
-9.09406e-08
8.15116e-10
-9.12142e-08
6.40086e-10
-9.14123e-08
4.63982e-10
-9.15346e-08
2.87034e-10
-9.15808e-08
1.09474e-10
-9.15509e-08
-6.84653e-11
-9.14446e-08
-2.4655e-10
-9.12621e-08
-4.24543e-10
-9.10035e-08
-6.02205e-10
-9.06691e-08
-7.79296e-10
-9.02593e-08
-9.55572e-10
-8.97743e-08
-1.13079e-09
-8.9215e-08
-1.3047e-09
-8.85818e-08
-1.47706e-09
-8.78757e-08
-1.64761e-09
-8.70974e-08
-1.81611e-09
-8.62479e-08
-1.98231e-09
-8.53285e-08
-2.14595e-09
-8.43402e-08
-2.30678e-09
-8.32845e-08
-2.46453e-09
-8.21627e-08
-2.61897e-09
-8.09763e-08
-2.76982e-09
-7.9727e-08
-2.91685e-09
-7.84167e-08
-3.05977e-09
-7.7047e-08
-3.19836e-09
-7.56201e-08
-3.33234e-09
-7.4138e-08
-3.46147e-09
-7.26028e-08
-3.58549e-09
-7.1017e-08
-3.70415e-09
-6.93828e-08
-3.8172e-09
-6.77028e-08
-3.9244e-09
-6.59796e-08
-4.02551e-09
-6.42159e-08
-4.12027e-09
-6.24145e-08
-4.20846e-09
-6.05784e-08
-4.28984e-09
-5.87105e-08
-4.36418e-09
-5.68139e-08
-4.43126e-09
-5.48919e-08
-4.49086e-09
-5.29477e-08
-4.54277e-09
-5.09847e-08
-4.58678e-09
-4.90063e-08
-4.62269e-09
-4.70161e-08
-4.65031e-09
-4.50177e-08
-4.66946e-09
-4.30148e-08
-4.67997e-09
-4.10111e-08
-4.68166e-09
-3.90104e-08
-4.67438e-09
-3.70166e-08
-4.65798e-09
-3.50336e-08
-4.63235e-09
-3.30655e-08
-4.59735e-09
-3.11162e-08
-4.55288e-09
-2.91897e-08
-4.49884e-09
-2.72902e-08
-4.43517e-09
-2.54217e-08
-4.3618e-09
-2.35884e-08
-4.2787e-09
-2.17944e-08
-4.18584e-09
-2.00437e-08
-4.08323e-09
-1.83405e-08
-3.97089e-09
-1.66888e-08
-3.84888e-09
-1.50926e-08
-3.7173e-09
-1.35559e-08
-3.57625e-09
-1.20825e-08
-3.4259e-09
-1.06763e-08
-3.26645e-09
-9.34077e-09
-3.09816e-09
-8.07953e-09
-2.92135e-09
-6.89587e-09
-2.73639e-09
-5.79291e-09
-2.54375e-09
-4.7735e-09
-2.34399e-09
-3.8402e-09
-2.13778e-09
-2.9952e-09
-1.92593e-09
-2.24027e-09
-1.70941e-09
-1.57665e-09
-1.4894e-09
-1.00498e-09
-1.26733e-09
-5.25174e-10
-1.04491e-09
-1.36244e-10
-8.24251e-10
1.63832e-10
-6.07922e-10
3.78342e-10
-3.99082e-10
5.12083e-10
-2.01617e-10
5.71643e-10
-2.03202e-11
5.65726e-10
1.38907e-10
5.05497e-10
2.68841e-10
4.04926e-10
3.60756e-10
2.81141e-10
4.0438e-10
1.54762e-10
3.8815e-10
5.04767e-11
3.00096e-10
1.29745e-10
4.73791e-11
-1.78666e-10
1.39878e-10
-3.89336e-10
2.42071e-10
-4.77949e-10
3.26566e-10
-4.65059e-10
3.70985e-10
-3.69125e-10
3.56953e-10
-2.06687e-10
2.69554e-10
7.92439e-12
9.68812e-11
2.62567e-10
-1.70307e-10
5.47171e-10
-5.38958e-10
8.53414e-10
-1.01405e-09
1.17447e-09
-1.59887e-09
1.50476e-09
-2.29526e-09
1.83974e-09
-3.10387e-09
2.17567e-09
-4.02432e-09
2.50951e-09
-5.05539e-09
2.83876e-09
-6.19514e-09
3.16137e-09
-7.44104e-09
3.47567e-09
-8.79008e-09
3.78029e-09
-1.02388e-08
4.07412e-09
-1.17834e-08
4.35625e-09
-1.34199e-08
4.62593e-09
-1.51439e-08
4.8826e-09
-1.6951e-08
5.12577e-09
-1.88366e-08
5.35509e-09
-2.07959e-08
5.57029e-09
-2.28241e-08
5.77118e-09
-2.49163e-08
5.95761e-09
-2.70676e-08
6.12953e-09
-2.92731e-08
6.2869e-09
-3.15277e-08
6.42974e-09
-3.38265e-08
6.5581e-09
-3.61646e-08
6.67207e-09
-3.85371e-08
6.77176e-09
-4.09391e-08
6.85729e-09
-4.33657e-08
6.92884e-09
-4.58122e-08
6.98657e-09
-4.82739e-08
7.03068e-09
-5.07461e-08
7.06138e-09
-5.32243e-08
7.07887e-09
-5.57039e-08
7.0834e-09
-5.81806e-08
7.07521e-09
-6.06499e-08
7.05453e-09
-6.31076e-08
7.02163e-09
-6.55496e-08
6.97677e-09
-6.79718e-08
6.92022e-09
-7.03701e-08
6.85225e-09
-7.27408e-08
6.77314e-09
-7.50799e-08
6.68317e-09
-7.73839e-08
6.58263e-09
-7.9649e-08
6.47181e-09
-8.18719e-08
6.351e-09
-8.40491e-08
6.2205e-09
-8.61773e-08
6.0806e-09
-8.82534e-08
5.9316e-09
-9.02742e-08
5.77381e-09
-9.22368e-08
5.60752e-09
-9.41383e-08
5.43305e-09
-9.5976e-08
5.25071e-09
-9.77472e-08
5.06079e-09
-9.94493e-08
4.86362e-09
-1.0108e-07
4.6595e-09
-1.02637e-07
4.44875e-09
-1.04118e-07
4.23169e-09
-1.0552e-07
4.00864e-09
-1.06843e-07
3.77991e-09
-1.08084e-07
3.54583e-09
-1.0924e-07
3.30673e-09
-1.10312e-07
3.06292e-09
-1.11297e-07
2.81474e-09
-1.12193e-07
2.56253e-09
-1.12999e-07
2.30661e-09
-1.13715e-07
2.04732e-09
-1.14339e-07
1.785e-09
-1.1487e-07
1.52e-09
-1.15308e-07
1.25265e-09
-1.15651e-07
9.83314e-10
-1.15899e-07
7.12331e-10
-1.16052e-07
4.40057e-10
-1.1611e-07
1.66851e-10
-1.16071e-07
-1.0693e-10
-1.15937e-07
-3.80922e-10
-1.15707e-07
-6.54761e-10
-1.15381e-07
-9.28078e-10
-1.1496e-07
-1.2005e-09
-1.14444e-07
-1.47166e-09
-1.13833e-07
-1.74118e-09
-1.13129e-07
-2.00867e-09
-1.12333e-07
-2.27376e-09
-1.11444e-07
-2.53606e-09
-1.10465e-07
-2.79519e-09
-1.09397e-07
-3.05076e-09
-1.0824e-07
-3.30238e-09
-1.06997e-07
-3.54966e-09
-1.0567e-07
-3.7922e-09
-1.04259e-07
-4.02962e-09
-1.02767e-07
-4.26153e-09
-1.01197e-07
-4.48752e-09
-9.95491e-08
-4.70721e-09
-9.78273e-08
-4.92021e-09
-9.60335e-08
-5.12613e-09
-9.41704e-08
-5.32457e-09
-9.22408e-08
-5.51515e-09
-9.02474e-08
-5.69748e-09
-8.81934e-08
-5.87119e-09
-8.60819e-08
-6.0359e-09
-8.39162e-08
-6.19124e-09
-8.16996e-08
-6.33683e-09
-7.94358e-08
-6.47232e-09
-7.71283e-08
-6.59735e-09
-7.47809e-08
-6.71157e-09
-7.23975e-08
-6.81465e-09
-6.99821e-08
-6.90624e-09
-6.75388e-08
-6.98604e-09
-6.50719e-08
-7.05371e-09
-6.25856e-08
-7.10898e-09
-6.00844e-08
-7.15153e-09
-5.75728e-08
-7.1811e-09
-5.50553e-08
-7.19743e-09
-5.25367e-08
-7.20027e-09
-5.00217e-08
-7.18938e-09
-4.75151e-08
-7.16455e-09
-4.50219e-08
-7.12559e-09
-4.25469e-08
-7.07232e-09
-4.00952e-08
-7.00458e-09
-3.76718e-08
-6.92226e-09
-3.52817e-08
-6.82523e-09
-3.29301e-08
-6.71343e-09
-3.0622e-08
-6.58681e-09
-2.83625e-08
-6.44535e-09
-2.61566e-08
-6.28907e-09
-2.40095e-08
-6.11803e-09
-2.1926e-08
-5.93234e-09
-1.99112e-08
-5.73216e-09
-1.79697e-08
-5.51767e-09
-1.61065e-08
-5.28917e-09
-1.43259e-08
-5.04698e-09
-1.26326e-08
-4.79153e-09
-1.10306e-08
-4.52332e-09
-9.52399e-09
-4.24298e-09
-8.11649e-09
-3.95125e-09
-6.81146e-09
-3.64902e-09
-5.61189e-09
-3.33734e-09
-4.52032e-09
-3.0175e-09
-3.53873e-09
-2.691e-09
-2.66848e-09
-2.35965e-09
-1.91018e-09
-2.02563e-09
-1.26354e-09
-1.69155e-09
-7.27255e-10
-1.36054e-09
-2.98775e-10
-1.0364e-09
2.58672e-11
-7.23724e-10
2.52315e-10
-4.28064e-10
3.88152e-10
-1.56157e-10
4.43194e-10
8.38652e-11
4.298e-10
2.82235e-10
3.63207e-10
4.2735e-10
2.61927e-10
5.05661e-10
1.48269e-10
5.01809e-10
4.93195e-11
3.99046e-10
1.79064e-10
4.02369e-11
-2.18904e-10
1.13711e-10
-4.62813e-10
1.84761e-10
-5.48976e-10
2.2522e-10
-5.05532e-10
2.12086e-10
-3.55993e-10
1.26392e-10
-1.20975e-10
-4.73952e-11
1.81704e-10
-3.21756e-10
5.36929e-10
-7.06545e-10
9.31964e-10
-1.20928e-09
1.35615e-09
-1.83543e-09
1.80061e-09
-2.58867e-09
2.25801e-09
-3.47115e-09
2.72223e-09
-4.48371e-09
3.18822e-09
-5.62602e-09
3.65182e-09
-6.89682e-09
4.10956e-09
-8.29401e-09
4.55856e-09
-9.8148e-09
4.99646e-09
-1.14558e-08
5.42132e-09
-1.32132e-08
5.83151e-09
-1.50827e-08
6.22571e-09
-1.70596e-08
6.60284e-09
-1.9139e-08
6.96204e-09
-2.13158e-08
7.3026e-09
-2.35847e-08
7.62397e-09
-2.59402e-08
7.92574e-09
-2.83766e-08
8.20758e-09
-3.08882e-08
8.46927e-09
-3.34694e-08
8.71069e-09
-3.61143e-08
8.93177e-09
-3.8817e-08
9.13249e-09
-4.15718e-08
9.31291e-09
-4.43729e-08
9.47312e-09
-4.72144e-08
9.61327e-09
-5.00906e-08
9.73351e-09
-5.29958e-08
9.83406e-09
-5.59244e-08
9.91515e-09
-5.88707e-08
9.97704e-09
-6.18294e-08
1.002e-08
-6.47948e-08
1.00443e-08
-6.77617e-08
1.00503e-08
-7.07249e-08
1.00384e-08
-7.36791e-08
1.00087e-08
-7.66193e-08
9.96183e-09
-7.95405e-08
9.898e-09
-8.24379e-08
9.81762e-09
-8.53068e-08
9.72107e-09
-8.81424e-08
9.60874e-09
-9.09402e-08
9.48102e-09
-9.36959e-08
9.33833e-09
-9.64051e-08
9.18105e-09
-9.90638e-08
9.00962e-09
-1.01668e-07
8.82443e-09
-1.04213e-07
8.62592e-09
-1.06696e-07
8.4145e-09
-1.09113e-07
8.1906e-09
-1.1146e-07
7.95465e-09
-1.13734e-07
7.70708e-09
-1.15931e-07
7.44834e-09
-1.1805e-07
7.17885e-09
-1.20085e-07
6.89906e-09
-1.22035e-07
6.60942e-09
-1.23897e-07
6.31036e-09
-1.25667e-07
6.00235e-09
-1.27344e-07
5.68582e-09
-1.28926e-07
5.36125e-09
-1.30409e-07
5.02908e-09
-1.31792e-07
4.68978e-09
-1.33073e-07
4.34381e-09
-1.3425e-07
3.99164e-09
-1.35321e-07
3.63375e-09
-1.36285e-07
3.2706e-09
-1.3714e-07
2.90268e-09
-1.37886e-07
2.53047e-09
-1.3852e-07
2.15445e-09
-1.39043e-07
1.77513e-09
-1.39452e-07
1.39298e-09
-1.39749e-07
1.00851e-09
-1.39931e-07
6.22219e-10
-1.39999e-07
2.3462e-10
-1.39952e-07
-1.5378e-10
-1.3979e-07
-5.42466e-10
-1.39514e-07
-9.30918e-10
-1.39123e-07
-1.31862e-09
-1.38619e-07
-1.70503e-09
-1.38001e-07
-2.08963e-09
-1.3727e-07
-2.47188e-09
-1.36428e-07
-2.85125e-09
-1.35474e-07
-3.22718e-09
-1.34411e-07
-3.59915e-09
-1.3324e-07
-3.9666e-09
-1.31962e-07
-4.32898e-09
-1.30578e-07
-4.68574e-09
-1.29091e-07
-5.03633e-09
-1.27503e-07
-5.38019e-09
-1.25816e-07
-5.71677e-09
-1.24032e-07
-6.04551e-09
-1.22154e-07
-6.36586e-09
-1.20184e-07
-6.67725e-09
-1.18125e-07
-6.97915e-09
-1.1598e-07
-7.27099e-09
-1.13753e-07
-7.55222e-09
-1.11445e-07
-7.82231e-09
-1.09062e-07
-8.0807e-09
-1.06607e-07
-8.32687e-09
-1.04082e-07
-8.56027e-09
-1.01493e-07
-8.78039e-09
-9.88431e-08
-8.98671e-09
-9.61367e-08
-9.17872e-09
-9.33781e-08
-9.35592e-09
-9.05719e-08
-9.51782e-09
-8.77226e-08
-9.66394e-09
-8.4835e-08
-9.79382e-09
-8.1914e-08
-9.90701e-09
-7.89647e-08
-1.00031e-08
-7.59921e-08
-1.00816e-08
-7.30015e-08
-1.01421e-08
-6.99983e-08
-1.01843e-08
-6.69879e-08
-1.02078e-08
-6.39759e-08
-1.02123e-08
-6.09679e-08
-1.01974e-08
-5.79696e-08
-1.01628e-08
-5.49869e-08
-1.01083e-08
-5.20255e-08
-1.00337e-08
-4.90914e-08
-9.93867e-09
-4.61905e-08
-9.82313e-09
-4.33289e-08
-9.68691e-09
-4.05124e-08
-9.52994e-09
-3.7747e-08
-9.35215e-09
-3.50388e-08
-9.15355e-09
-3.23937e-08
-8.93418e-09
-2.98176e-08
-8.69415e-09
-2.73163e-08
-8.43364e-09
-2.48956e-08
-8.15289e-09
-2.2561e-08
-7.85222e-09
-2.03182e-08
-7.53203e-09
-1.81723e-08
-7.19285e-09
-1.61285e-08
-6.83529e-09
-1.41917e-08
-6.46012e-09
-1.23665e-08
-6.06825e-09
-1.0657e-08
-5.66075e-09
-9.06705e-09
-5.23893e-09
-7.60008e-09
-4.80431e-09
-6.25888e-09
-4.3587e-09
-5.04561e-09
-3.90426e-09
-3.96172e-09
-3.44355e-09
-3.00777e-09
-2.97958e-09
-2.18334e-09
-2.51597e-09
-1.48686e-09
-2.05702e-09
-9.15413e-10
-1.60785e-09
-4.64542e-10
-1.1746e-09
-1.28039e-10
-7.64568e-10
1.02313e-10
-3.86509e-10
2.36999e-10
-5.08207e-11
2.89059e-10
2.30176e-10
2.74415e-10
4.41993e-10
2.12305e-10
5.6777e-10
1.25886e-10
5.88231e-10
4.32628e-11
4.8167e-10
2.22326e-10
2.97563e-11
-2.4866e-10
7.59397e-11
-5.09e-10
1.04362e-10
-5.77397e-10
8.73345e-11
-4.8851e-10
1.98308e-12
-2.7064e-10
-1.70661e-10
5.16643e-11
-4.46205e-10
4.57246e-10
-8.37321e-10
9.28054e-10
-1.35411e-09
1.44875e-09
-2.00433e-09
2.00636e-09
-2.79369e-09
2.58998e-09
-3.7261e-09
3.19042e-09
-4.80388e-09
3.80001e-09
-6.02793e-09
4.41228e-09
-7.39796e-09
5.02186e-09
-8.91264e-09
5.62423e-09
-1.05697e-08
6.21563e-09
-1.23662e-08
6.79292e-09
-1.42983e-08
7.35347e-09
-1.63619e-08
7.89511e-09
-1.85523e-08
8.41605e-09
-2.08642e-08
8.91479e-09
-2.32923e-08
9.39013e-09
-2.58308e-08
9.84109e-09
-2.84737e-08
1.02669e-08
-3.12149e-08
1.06669e-08
-3.4048e-08
1.10407e-08
-3.69666e-08
1.13879e-08
-3.99642e-08
1.17083e-08
-4.30343e-08
1.20018e-08
-4.61702e-08
1.22684e-08
-4.93653e-08
1.2508e-08
-5.2613e-08
1.27208e-08
-5.59068e-08
1.2907e-08
-5.92399e-08
1.30666e-08
-6.26059e-08
1.32001e-08
-6.59984e-08
1.33076e-08
-6.9411e-08
1.33896e-08
-7.28373e-08
1.34463e-08
-7.62711e-08
1.34781e-08
-7.97062e-08
1.34855e-08
-8.31367e-08
1.34688e-08
-8.65565e-08
1.34286e-08
-8.99599e-08
1.33652e-08
-9.33412e-08
1.32792e-08
-9.66947e-08
1.31711e-08
-1.00015e-07
1.30413e-08
-1.03297e-07
1.28904e-08
-1.06534e-07
1.27189e-08
-1.09723e-07
1.25273e-08
-1.12858e-07
1.23162e-08
-1.15935e-07
1.20861e-08
-1.18948e-07
1.18375e-08
-1.21893e-07
1.15711e-08
-1.24766e-07
1.12874e-08
-1.27562e-07
1.09869e-08
-1.30278e-07
1.06703e-08
-1.32909e-07
1.03381e-08
-1.35452e-07
9.9909e-09
-1.37902e-07
9.62929e-09
-1.40257e-07
9.25386e-09
-1.42513e-07
8.8652e-09
-1.44666e-07
8.46391e-09
-1.46714e-07
8.05061e-09
-1.48655e-07
7.62589e-09
-1.50484e-07
7.19037e-09
-1.52199e-07
6.74466e-09
-1.53799e-07
6.28938e-09
-1.5528e-07
5.82516e-09
-1.56641e-07
5.35264e-09
-1.5788e-07
4.87243e-09
-1.58994e-07
4.38518e-09
-1.59983e-07
3.89154e-09
-1.60845e-07
3.39216e-09
-1.61578e-07
2.88767e-09
-1.62182e-07
2.37876e-09
-1.62655e-07
1.86607e-09
-1.62997e-07
1.35029e-09
-1.63207e-07
8.32083e-10
-1.63284e-07
3.12134e-10
-1.63229e-07
-2.08872e-10
-1.63041e-07
-7.30244e-10
-1.62721e-07
-1.25129e-09
-1.62268e-07
-1.77129e-09
-1.61684e-07
-2.28956e-09
-1.60968e-07
-2.80537e-09
-1.60122e-07
-3.31801e-09
-1.59146e-07
-3.82676e-09
-1.58043e-07
-4.33089e-09
-1.56812e-07
-4.82967e-09
-1.55456e-07
-5.32237e-09
-1.53977e-07
-5.80826e-09
-1.52376e-07
-6.28659e-09
-1.50656e-07
-6.75662e-09
-1.48818e-07
-7.21761e-09
-1.46866e-07
-7.66882e-09
-1.44802e-07
-8.10951e-09
-1.42629e-07
-8.53892e-09
-1.4035e-07
-8.95633e-09
-1.37968e-07
-9.36098e-09
-1.35487e-07
-9.75214e-09
-1.3291e-07
-1.01291e-08
-1.30242e-07
-1.04911e-08
-1.27485e-07
-1.08374e-08
-1.24644e-07
-1.11673e-08
-1.21725e-07
-1.14802e-08
-1.1873e-07
-1.17752e-08
-1.15665e-07
-1.20517e-08
-1.12534e-07
-1.23091e-08
-1.09344e-07
-1.25467e-08
-1.06098e-07
-1.27638e-08
-1.02802e-07
-1.29597e-08
-9.94617e-08
-1.3134e-08
-9.60828e-08
-1.32859e-08
-9.26709e-08
-1.34149e-08
-8.92319e-08
-1.35205e-08
-8.57719e-08
-1.36021e-08
-8.22971e-08
-1.36592e-08
-7.88136e-08
-1.36913e-08
-7.53279e-08
-1.3698e-08
-7.18465e-08
-1.36788e-08
-6.83758e-08
-1.36335e-08
-6.49225e-08
-1.35616e-08
-6.14933e-08
-1.34628e-08
-5.80951e-08
-1.3337e-08
-5.47344e-08
-1.31838e-08
-5.14182e-08
-1.30031e-08
-4.81534e-08
-1.27948e-08
-4.49466e-08
-1.25589e-08
-4.18048e-08
-1.22954e-08
-3.87346e-08
-1.20043e-08
-3.57428e-08
-1.16859e-08
-3.2836e-08
-1.13405e-08
-3.00207e-08
-1.09682e-08
-2.73031e-08
-1.05697e-08
-2.46896e-08
-1.01456e-08
-2.2186e-08
-9.69641e-09
-1.97982e-08
-9.22317e-09
-1.75314e-08
-8.72688e-09
-1.53908e-08
-8.20881e-09
-1.33812e-08
-7.67043e-09
-1.15066e-08
-7.1135e-09
-9.77079e-09
-6.5401e-09
-8.17684e-09
-5.95265e-09
-6.72708e-09
-5.35403e-09
-5.42302e-09
-4.7476e-09
-4.26525e-09
-4.13735e-09
-3.25326e-09
-3.52796e-09
-2.38531e-09
-2.92497e-09
-1.65826e-09
-2.3349e-09
-1.06737e-09
-1.76548e-09
-6.06122e-10
-1.22582e-09
-2.65961e-10
-7.26669e-10
-3.60969e-11
-2.80685e-10
9.67828e-11
9.72967e-11
1.4882e-10
3.89956e-10
1.39403e-10
5.77186e-10
9.17531e-11
6.35881e-10
3.3804e-11
5.3962e-10
2.56131e-10
1.70292e-11
-2.65689e-10
2.98716e-11
-5.21852e-10
6.88751e-12
-5.54398e-10
-7.82581e-11
-4.03358e-10
-2.47625e-10
-1.01277e-10
-5.19653e-10
3.23687e-10
-9.09625e-10
8.47222e-10
-1.43005e-09
1.44848e-09
-2.09094e-09
2.10962e-09
-2.90003e-09
2.81546e-09
-3.8631e-09
3.55304e-09
-4.98406e-09
4.31139e-09
-6.26527e-09
5.0812e-09
-7.70761e-09
5.85463e-09
-9.31075e-09
6.625e-09
-1.10732e-08
7.38672e-09
-1.29927e-08
8.13506e-09
-1.50658e-08
8.86605e-09
-1.72887e-08
9.57634e-09
-1.96567e-08
1.02631e-08
-2.21647e-08
1.09241e-08
-2.48072e-08
1.15573e-08
-2.75782e-08
1.21611e-08
-3.04715e-08
1.27343e-08
-3.34803e-08
1.32758e-08
-3.65981e-08
1.37847e-08
-3.98178e-08
1.42604e-08
-4.31324e-08
1.47025e-08
-4.65346e-08
1.51105e-08
-5.00172e-08
1.54844e-08
-5.35728e-08
1.5824e-08
-5.71941e-08
1.61294e-08
-6.08738e-08
1.64005e-08
-6.46044e-08
1.66376e-08
-6.83787e-08
1.68409e-08
-7.21894e-08
1.70108e-08
-7.60293e-08
1.71475e-08
-7.98911e-08
1.72514e-08
-8.37679e-08
1.73231e-08
-8.76527e-08
1.73629e-08
-9.15385e-08
1.73713e-08
-9.54186e-08
1.73489e-08
-9.92864e-08
1.72963e-08
-1.03135e-07
1.72141e-08
-1.06959e-07
1.71027e-08
-1.1075e-07
1.69629e-08
-1.14505e-07
1.67953e-08
-1.18215e-07
1.66006e-08
-1.21875e-07
1.63794e-08