/*--------------------------------*- C++ -*----------------------------------*\
  =========                 |
  \\      /  F ield         | OpenFOAM: The Open Source CFD Toolbox
   \\    /   O peration     | Website:  https://openfoam.org
    \\  /    A nd           | Version:  7
     \\/     M anipulation  |
\*---------------------------------------------------------------------------*/
FoamFile
{
    version     2.0;
    format      ascii;
    class       volScalarField;
    location    "0.5";
    object      p;
}
// * * * * * * * * * * * * * * * * * * * * * * * * * * * * * * * * * * * * * //

dimensions      [0 2 -2 0 0 0 0];

internalField   nonuniform List<scalar> 
6400
(
5.45859e-06
2.16251e-05
-0.000484678
-0.00151786
-0.00296073
-0.00470302
-0.00664439
-0.00869527
-0.0107784
-0.0128284
-0.0147901
-0.0166174
-0.0182717
-0.0197214
-0.0209407
-0.0219087
-0.0226094
-0.0230306
-0.0231638
-0.0230035
-0.0225473
-0.0217953
-0.02075
-0.0194158
-0.0177992
-0.0159085
-0.0137536
-0.0113457
-0.00869745
-0.00582273
-0.00273656
0.000545035
0.00400505
0.00762561
0.0113881
0.015273
0.0192605
0.0233298
0.0274599
0.0316293
0.0358162
0.0399984
0.0441539
0.0482601
0.052295
0.0562364
0.0600625
0.0637519
0.0672837
0.0706376
0.0737941
0.0767349
0.0794426
0.0819009
0.0840954
0.086013
0.0876425
0.0889746
0.0900025
0.0907215
0.0911297
0.091228
0.0910205
0.0905144
0.0897209
0.088655
0.087336
0.0857881
0.0840406
0.0821289
0.0800947
0.0779872
0.0758639
0.0737917
0.0718483
0.0701222
0.0687104
0.0677173
0.0672494
0.0672871
-2.58666e-06
1.10699e-05
-0.000442688
-0.00132634
-0.00254062
-0.00400632
-0.00564753
-0.00739187
-0.00917408
-0.0109369
-0.0126306
-0.0142126
-0.015647
-0.0169033
-0.0179566
-0.0187863
-0.0193763
-0.0197141
-0.0197906
-0.0195997
-0.0191381
-0.0184051
-0.0174021
-0.0161326
-0.0146021
-0.0128177
-0.0107881
-0.00852337
-0.0060351
-0.00333594
-0.000439685
0.00263883
0.00588384
0.00927872
0.0128061
0.0164478
0.0201851
0.0239989
0.0278692
0.031776
0.0356988
0.0396169
0.0435096
0.047356
0.0511354
0.054827
0.0584106
0.0618663
0.0651747
0.0683171
0.0712754
0.0740328
0.0765734
0.0788825
0.0809469
0.082755
0.0842967
0.0855643
0.0865518
0.0872558
0.0876752
0.0878117
0.0876699
0.0872578
0.0865866
0.0856713
0.0845309
0.0831888
0.081673
0.0800169
0.0782593
0.0764453
0.0746262
0.0728607
0.0712139
0.0697573
0.068564
0.067709
0.0672857
0.0673245
0.000504316
0.000466309
1.2291e-05
-0.000803901
-0.00189498
-0.00319763
-0.00465066
-0.00619397
-0.00777192
-0.00933446
-0.0108373
-0.0122417
-0.0135144
-0.014627
-0.0155557
-0.0162807
-0.0167864
-0.0170603
-0.0170933
-0.016879
-0.0164136
-0.0156959
-0.0147266
-0.0135087
-0.0120466
-0.0103469
-0.00841724
-0.00626697
-0.00390662
-0.00134795
0.0013962
0.00431199
0.00738463
0.0105985
0.0139373
0.017384
0.0209208
0.0245296
0.0281917
0.0318881
0.0355994
0.0393063
0.0429889
0.0466277
0.050203
0.0536955
0.0570859
0.0603556
0.0634865
0.0664609
0.0692621
0.0718743
0.0742828
0.076474
0.0784357
0.0801574
0.0816301
0.0828468
0.0838023
0.084494
0.0849214
0.0850866
0.0849946
0.0846535
0.0840742
0.0832716
0.082264
0.0810735
0.0797267
0.0782547
0.0766931
0.0750829
0.0734701
0.0719056
0.0704452
0.0691484
0.0680744
0.0672833
0.0668607
0.0668583
0.00153745
0.00135245
0.000828609
9.12466e-06
-0.0010393
-0.00226309
-0.00361048
-0.00503072
-0.0064762
-0.00790331
-0.00927285
-0.0105501
-0.0117048
-0.0127106
-0.0135456
-0.0141913
-0.0146325
-0.0148574
-0.0148571
-0.0146252
-0.0141579
-0.0134536
-0.0125126
-0.0113375
-0.00993225
-0.0083026
-0.00645576
-0.00440029
-0.002146
0.000296108
0.002914
0.00569465
0.00862411
0.0116877
0.0148698
0.0181543
0.0215245
0.0249631
0.0284524
0.0319743
0.0355104
0.0390422
0.042551
0.0460181
0.049425
0.0527531
0.0559844
0.0591011
0.062086
0.0649226
0.067595
0.0700884
0.0723889
0.0744838
0.0763618
0.0780131
0.0794294
0.0806042
0.0815332
0.0822139
0.0826463
0.0828328
0.0827783
0.0824907
0.0819808
0.0812625
0.0803533
0.079274
0.0780495
0.0767081
0.0752825
0.0738096
0.07233
0.0708886
0.0695333
0.0683147
0.0672831
0.0664901
0.0660038
0.0658683
0.0029866
0.00257508
0.00192337
0.00105097
-4.88202e-06
-0.00119935
-0.00248852
-0.0038301
-0.00518381
-0.00651215
-0.00778091
-0.0089594
-0.0100205
-0.0109404
-0.0116991
-0.0122795
-0.0126675
-0.012852
-0.0128245
-0.0125789
-0.0121114
-0.0114203
-0.0105058
-0.00937007
-0.0080167
-0.00645096
-0.00467949
-0.00271026
-0.000552458
0.00178362
0.00428665
0.00694433
0.00974352
0.0126702
0.0157098
0.0188469
0.0220657
0.0253496
0.0286818
0.0320452
0.0354223
0.0387954
0.0421467
0.0454584
0.0487129
0.0518925
0.0549802
0.0579589
0.0608124
0.063525
0.0660816
0.0684683
0.0706719
0.0726804
0.0744833
0.0760714
0.0774368
0.0785738
0.0794782
0.080148
0.0805832
0.0807863
0.0807621
0.0805182
0.0800648
0.079415
0.078585
0.0775944
0.0764656
0.0752248
0.0739013
0.0725278
0.0711402
0.0697773
0.06848
0.067291
0.0662533
0.0654107
0.0648042
0.0644565
0.00474961
0.00406118
0.00323845
0.00227284
0.00116816
-3.85144e-05
-0.00130992
-0.00261135
-0.00390922
-0.0051717
-0.00636932
-0.00747532
-0.00846577
-0.00931962
-0.0100187
-0.0105475
-0.0108933
-0.0110459
-0.0109973
-0.010742
-0.0102762
-0.00959842
-0.00870878
-0.00760914
-0.00630292
-0.00479496
-0.0030915
-0.0012
0.000870916
0.00311154
0.00551117
0.00805819
0.0107401
0.0135438
0.0164551
0.0194596
0.0225422
0.0256871
0.0288784
0.0320995
0.035334
0.0385648
0.0417751
0.0449479
0.0480662
0.0511134
0.0540729
0.0569288
0.0596654
0.0622678
0.0647217
0.0670138
0.0691315
0.0710636
0.0727999
0.0743318
0.0756519
0.0767548
0.0776366
0.0782953
0.0787311
0.0789463
0.0789454
0.0787356
0.0783264
0.0777299
0.076961
0.0760376
0.0749801
0.0738121
0.0725597
0.0712518
0.0699195
0.0685962
0.0673166
0.0661161
0.0650316
0.0640997
0.0633304
0.0627194
0.00673574
0.00574217
0.00471859
0.00362815
0.00244072
0.00118685
-0.00010166
-0.00139678
-0.00267093
-0.00389742
-0.00505119
-0.00610922
-0.00705074
-0.00785728
-0.00851276
-0.00900346
-0.00931793
-0.00944697
-0.00938346
-0.00912228
-0.00866021
-0.00799582
-0.00712932
-0.00606249
-0.00479859
-0.00334221
-0.00169922
0.000123292
0.00211717
0.00427322
0.00658128
0.00903032
0.0116085
0.0143032
0.0171011
0.0199884
0.0229506
0.0259728
0.0290396
0.0321354
0.0352441
0.0383498
0.0414361
0.0444868
0.0474857
0.0504168
0.0532644
0.0560129
0.0586476
0.061154
0.0635185
0.0657282
0.0677714
0.069637
0.0713155
0.0727985
0.074079
0.0751516
0.0760128
0.0766605
0.0770948
0.0773177
0.0773335
0.0771485
0.0767716
0.0762138
0.0754887
0.0746123
0.0736031
0.072482
0.0712722
0.0699989
0.0686891
0.0673712
0.0660741
0.064827
0.0636619
0.0626094
0.061647
0.0607437
0.00886567
0.0075535
0.00630999
0.00507156
0.00377531
0.00244651
0.00111262
-0.000204167
-0.00148158
-0.00269752
-0.00383099
-0.00486247
-0.00577417
-0.00655017
-0.0071765
-0.00764116
-0.00793414
-0.00804733
-0.00797449
-0.00771117
-0.00725462
-0.00660369
-0.00575876
-0.00472165
-0.00349553
-0.00208486
-0.000495252
0.00126653
0.0031927
0.00527449
0.00750219
0.0098653
0.0123525
0.0149517
0.0176504
0.0204351
0.023292
0.0262069
0.029165
0.0321514
0.0351507
0.0381474
0.041126
0.0440707
0.0469661
0.0497968
0.0525475
0.0552035
0.0577504
0.0601743
0.062462
0.0646013
0.0665806
0.0683894
0.0700183
0.0714593
0.0727056
0.0737518
0.0745944
0.0752313
0.0756623
0.0758892
0.0759156
0.0757472
0.0753919
0.0748597
0.0741629
0.0733157
0.0723345
0.0712379
0.070046
0.0687809
0.0674657
0.0661245
0.0647812
0.0634596
0.0621876
0.0609909
0.0598158
0.0586055
0.0110724
0.00943766
0.00796313
0.00656051
0.005136
0.0037108
0.00230896
0.000947723
-0.0003553
-0.00158209
-0.00271531
-0.00373866
-0.00463717
-0.00539733
-0.00600722
-0.00645659
-0.00673685
-0.00684106
-0.00676394
-0.00650174
-0.00605226
-0.00541475
-0.00458984
-0.00357947
-0.00238682
-0.00101626
0.00052673
0.00223564
0.00410298
0.00612031
0.00827835
0.010567
0.0129754
0.0154921
0.0181048
0.0208009
0.0235669
0.0263893
0.0292538
0.032146
0.0350512
0.0379545
0.0408408
0.043695
0.0465021
0.0492472
0.0519157
0.0544932
0.0569658
0.05932
0.0615432
0.0636232
0.0655489
0.06731
0.0688974
0.0703031
0.0715205
0.0725442
0.0733704
0.0739969
0.0744234
0.074651
0.0746827
0.0745237
0.0741808
0.0736629
0.0729807
0.0721471
0.0711764
0.0700847
0.0688898
0.0676105
0.0662667
0.0648786
0.0634659
0.0620476
0.0606487
0.0592912
0.0578915
0.0563691
0.0132999
0.0113445
0.00963353
0.00805589
0.00648894
0.00495091
0.00346333
0.00203922
0.000692189
-0.000563333
-0.00171325
-0.00274423
-0.00364387
-0.00440095
-0.00500553
-0.00544903
-0.00572429
-0.00582556
-0.00574852
-0.00549022
-0.00504905
-0.00442473
-0.00361819
-0.00263156
-0.00146814
-0.00013227
0.00137066
0.0030343
0.00485136
0.0068137
0.00891237
0.0111376
0.0134791
0.0159255
0.0184653
0.0210861
0.0237752
0.0265192
0.0293047
0.0321175
0.0349434
0.0377681
0.040577
0.0433555
0.046089
0.0487629
0.0513632
0.0538758
0.0562871
0.0585842
0.0607544
0.0627861
0.0646682
0.0663906
0.0679443
0.0693215
0.0705152
0.0715203
0.0723326
0.0729497
0.0733707
0.0735965
0.0736293
0.0734735
0.073135
0.0726214
0.0719423
0.0711087
0.0701332
0.06903
0.0678142
0.0665019
0.0651101
0.0636558
0.062155
0.0606229
0.0590821
0.0575521
0.0559216
0.0540881
0.0155015
0.0132306
0.0112816
0.00952207
0.00780265
0.00613947
0.00455228
0.00305059
0.00164457
0.000345558
-0.000835246
-0.00188714
-0.00280011
-0.00356504
-0.00417386
-0.0046196
-0.0048965
-0.00499999
-0.00492672
-0.00467455
-0.00424254
-0.00363088
-0.00284089
-0.00187495
-0.00073651
0.000570033
0.00203931
0.00366507
0.00544019
0.00735674
0.00940602
0.0115786
0.0138644
0.0162526
0.018732
0.0212906
0.023916
0.0265955
0.0293159
0.0320635
0.0348247
0.0375852
0.0403312
0.0430482
0.0457222
0.048339
0.0508846
0.0533455
0.0557083
0.0579603
0.060089
0.062083
0.0639313
0.0656239
0.0671518
0.068507
0.0696826
0.0706732
0.0714744
0.0720833
0.0724988
0.0727209
0.0727514
0.0725937
0.0722528
0.0717352
0.0710491
0.070204
0.069211
0.068082
0.0668303
0.0654694
0.0640138
0.0624775
0.0608738
0.0592145
0.0575209
0.0558107
0.0539469
0.0518066
0.0176376
0.0150584
0.012872
0.0109267
0.00904799
0.00725059
0.00555318
0.00396232
0.0024853
0.00113076
-9.26266e-05
-0.0011765
-0.00211301
-0.002895
-0.00351613
-0.00397095
-0.00425505
-0.00436502
-0.00429848
-0.00405411
-0.00363163
-0.00303178
-0.00225629
-0.00130785
-0.000190081
0.00109248
0.00253445
0.00412961
0.00587093
0.00775065
0.00976026
0.0118906
0.0141318
0.0164735
0.0189046
0.0214136
0.0239884
0.0266167
0.0292856
0.0319819
0.0346921
0.0374026
0.0400996
0.0427692
0.0453974
0.0479705
0.0504748
0.0528969
0.0552236
0.0574423
0.0595408
0.0615076
0.0633318
0.0650034
0.0665133
0.0678533
0.0690165
0.069997
0.0707903
0.071393
0.0718032
0.0720207
0.0720463
0.0718828
0.071534
0.0710055
0.0703041
0.069438
0.0684165
0.06725
0.0659497
0.0645274
0.0629949
0.0613642
0.0596458
0.0578492
0.0559949
0.0540997
0.0520023
0.0495611
0.019675
0.0167949
0.0143734
0.0122406
0.0101981
0.00825998
0.00644433
0.00475532
0.00319776
0.00177801
0.000502537
-0.000622392
-0.00159087
-0.00239752
-0.0030376
-0.00350713
-0.00380294
-0.00392276
-0.00386515
-0.00362964
-0.0032166
-0.00262733
-0.00186401
-0.000929658
0.000171846
0.00143582
0.00285681
0.00442856
0.00614412
0.00799582
0.0099753
0.0120736
0.014281
0.0165875
0.0189822
0.0214539
0.0239909
0.0265809
0.0292116
0.03187
0.0345429
0.037217
0.0398787
0.0425144
0.0451104
0.0476531
0.050129
0.0525249
0.0548277
0.0570248
0.0591042
0.0610542
0.062864
0.0645235
0.0660234
0.0673553
0.0685119
0.0694872
0.0702761
0.0708749
0.0712811
0.0714937
0.071513
0.0713406
0.0709798
0.0704348
0.0697113
0.0688162
0.0677574
0.0665437
0.0651846
0.0636901
0.0620702
0.060335
0.0584929
0.0565514
0.0545308
0.0524475
0.0501178
0.0473822
0.0215849
0.0184114
0.0157581
0.0134371
0.0112281
0.00914476
0.00720497
0.00541094
0.00376542
0.00227279
0.000937631
-0.000235654
-0.0012429
-0.00208033
-0.00274471
-0.0032334
-0.00354444
-0.00367661
-0.00362942
-0.00340318
-0.00299896
-0.00241864
-0.00166483
-0.000740948
0.000348877
0.00159976
0.00300612
0.00456167
0.00625944
0.00809182
0.0100506
0.0121268
0.0143111
0.0165935
0.0189634
0.0214098
0.0239213
0.0264859
0.0290913
0.031725
0.0343739
0.0370249
0.0396648
0.04228
0.044857
0.0473823
0.0498427
0.0522248
0.0545157
0.0567029
0.0587742
0.0607179
0.0625231
0.0641794
0.0656774
0.0670084
0.0681648
0.0691401
0.0699288
0.0705266
0.0709306
0.071139
0.0711512
0.0709683
0.0705922
0.0700265
0.0692756
0.0683453
0.067242
0.0659732
0.064547
0.0629718
0.0612561
0.0594084
0.0574354
0.0553432
0.0531523
0.0508793
0.0483191
0.0452954
0.0233422
0.0198825
0.0170006
0.0144921
0.012115
0.00988342
0.00781523
0.00591104
0.00417187
0.00260043
0.00119963
-2.77434e-05
-0.00107909
-0.00195212
-0.00264493
-0.00315615
-0.00348496
-0.00363113
-0.00359509
-0.00337793
-0.00298141
-0.00240795
-0.00166066
-0.00074333
0.000339601
0.00158303
0.00298121
0.00452777
0.0062157
0.00803741
0.00998471
0.0120488
0.0142204
0.0164897
0.0188462
0.0212793
0.0237774
0.026329
0.028922
0.0315438
0.0341818
0.036823
0.0394542
0.042062
0.044633
0.047154
0.0496114
0.0519921
0.0542832
0.0564721
0.0585463
0.0604943
0.0623046
0.063967
0.0654714
0.0668091
0.067972
0.068953
0.0697462
0.0703467
0.070751
0.0709566
0.0709621
0.0707677
0.0703746
0.0697852
0.069003
0.0680325
0.0668791
0.0655491
0.0640491
0.0623863
0.0605681
0.0586016
0.0564923
0.0542451
0.051881
0.0494173
0.0466286
0.0433225
0.0249249
0.0211854
0.0180783
0.0153831
0.0128374
0.0104556
0.00825605
0.00623796
0.0044009
0.00274617
0.00127521
-1.0625e-05
-0.00111013
-0.00202233
-0.0027466
-0.00328271
-0.0036309
-0.00379193
-0.00376707
-0.00355817
-0.00316766
-0.00259854
-0.0018544
-0.000939414
0.000141646
0.00138343
0.00278001
0.00432487
0.00601096
0.00783065
0.00977575
0.0118376
0.0140068
0.0162738
0.0186283
0.0210596
0.0235565
0.0261074
0.0287005
0.0313233
0.0339633
0.0366076
0.0392431
0.0418566
0.0444346
0.0469639
0.049431
0.0518227
0.054126
0.0563281
0.0584166
0.0603794
0.0622051
0.0638828
0.0654025
0.0667548
0.0679312
0.0689241
0.0697271
0.0703347
0.0707425
0.0709475
0.0709477
0.0707421
0.070331
0.0697161
0.0688998
0.0678856
0.066678
0.0652819
0.063703
0.0619474
0.0600214
0.0579311
0.0556811
0.0532756
0.0507363
0.0480813
0.045066
0.0414821
0.026313
0.0222993
0.0189702
0.0160895
0.0133751
0.010842
0.00850908
0.00637447
0.00443648
0.00269518
0.00115077
-0.000196698
-0.00134725
-0.00230113
-0.00305885
-0.00362127
-0.00398962
-0.00416557
-0.00415121
-0.00394915
-0.00356245
-0.00299467
-0.00224991
-0.00133273
-0.000248258
0.000997901
0.0023996
0.00395019
0.00564249
0.00746883
0.00942099
0.0114903
0.0136675
0.015943
0.0183066
0.0207477
0.0232552
0.0258177
0.0284233
0.0310598
0.0337146
0.0363749
0.0390277
0.0416598
0.0442577
0.0468081
0.0492975
0.0517126
0.0540402
0.0562673
0.0583812
0.0603698
0.0622211
0.063924
0.065468
0.0668432
0.0680407
0.0690524
0.0698711
0.0704908
0.0709063
0.0711138
0.0711106
0.070895
0.0704663
0.0698253
0.0689734
0.0679133
0.0666483
0.0651827
0.063521
0.0616685
0.0596306
0.0574127
0.0550187
0.0524521
0.049736
0.0468894
0.0436486
0.0397905
0.0274884
0.0232051
0.0196568
0.0165918
0.013709
0.0110241
0.00855656
0.00630369
0.00426269
0.00243259
0.000812467
-0.000598747
-0.00180222
-0.0027993
-0.00359154
-0.00418081
-0.00456928
-0.00475948
-0.00475429
-0.00455703
-0.00417139
-0.00360151
-0.00285194
-0.0019277
-0.000834228
0.000422565
0.00183631
0.00340018
0.00510686
0.00694858
0.0089171
0.0110037
0.0131992
0.0154939
0.0178778
0.0203402
0.0228702
0.0254563
0.0280868
0.0307495
0.0334318
0.036121
0.0388041
0.0414676
0.0440983
0.0466827
0.0492071
0.051658
0.0540221
0.056286
0.058437
0.0604624
0.0623501
0.0640883
0.0656661
0.0670731
0.0682998
0.0693376
0.0701786
0.0708161
0.0712442
0.0714582
0.0714547
0.0712311
0.0707861
0.0701193
0.0692315
0.0681242
0.0668001
0.0652626
0.0635154
0.0615629
0.05941
0.0570616
0.0545209
0.0517912
0.0488967
0.0458578
0.0423925
0.0382624
0.0284342
0.0238849
0.0201197
0.0168716
0.0138209
0.010984
0.00838117
0.00600899
0.00386372
0.00194344
0.000246256
-0.00122992
-0.00248728
-0.00352818
-0.00435517
-0.00497103
-0.00537883
-0.0055819
-0.0055839
-0.00538881
-0.00500097
-0.00442505
-0.0036661
-0.00272954
-0.00162118
-0.000347234
0.00108569
0.00267056
0.00439992
0.00626588
0.00826012
0.0103739
0.0125979
0.0149226
0.0173379
0.0198331
0.0223973
0.0250192
0.0276869
0.0303883
0.0331109
0.0358419
0.038568
0.041276
0.0439525
0.0465836
0.0491557
0.0516551
0.0540681
0.0563812
0.058581
0.0606547
0.0625896
0.0643737
0.0659953
0.0674435
0.0687082
0.0697801
0.0706506
0.0713123
0.0717587
0.0719841
0.0719842
0.0717558
0.0712967
0.0706056
0.0696824
0.0685279
0.067144
0.0655331
0.0636986
0.0616441
0.0593739
0.0568926
0.0542031
0.0513082
0.048234
0.0450021
0.0413122
0.0369113
0.0291341
0.0243217
0.0203413
0.0169112
0.0136931
0.0107042
0.0079659
0.00547393
0.00322376
0.00121266
-0.000562167
-0.00210372
-0.00341513
-0.00449969
-0.00536086
-0.0060023
-0.00642791
-0.00664181
-0.00664838
-0.00645229
-0.00605844
-0.00547208
-0.00469873
-0.00374424
-0.00261478
-0.00131688
0.000142595
0.0017564
0.0035169
0.00541607
0.00744549
0.00959632
0.0118593
0.0142247
0.0166825
0.019222
0.0218323
0.024502
0.0272193
0.029972
0.0327476
0.0355331
0.0383153
0.0410809
0.043816
0.046507
0.0491398
0.0517004
0.054175
0.0565495
0.0588104
0.0609442
0.0629378
0.0647786
0.0664545
0.0679539
0.069266
0.0703807
0.0712888
0.071982
0.0724531
0.0726956
0.0727043
0.0724751
0.072005
0.0712919
0.070335
0.0691342
0.0676906
0.0660061
0.0640832
0.0619254
0.0595364
0.0569204
0.0540801
0.0510185
0.047763
0.0443369
0.0404217
0.0357496
0.0295726
0.0244989
0.0203046
0.0166932
0.0133082
0.0101677
0.00729394
0.00468212
0.00232697
0.000224999
-0.00162737
-0.00323401
-0.00459891
-0.00572623
-0.0066203
-0.00728561
-0.00772685
-0.0079489
-0.00795684
-0.00775597
-0.00735181
-0.00675013
-0.00595695
-0.00497852
-0.0038214
-0.00249243
-0.000998774
0.000652109
0.0024524
0.00439392
0.00646812
0.00866605
0.0109784
0.0133954
0.0159068
0.0185022
0.0211704
0.0239001
0.0266794
0.0294959
0.0323372
0.0351902
0.0380416
0.0408778
0.0436849
0.0464488
0.0491554
0.0517904
0.0543394
0.0567882
0.0591227
0.0613288
0.063393
0.0653021
0.0670434
0.0686045
0.069974
0.0711409
0.0720953
0.0728281
0.0733312
0.0735974
0.0736205
0.0733955
0.0729186
0.0721869
0.0711988
0.0699535
0.0684513
0.0666936
0.0646823
0.0624204
0.0599115
0.0571594
0.0541669
0.0509369
0.0474984
0.0438765
0.0397344
0.0347896
0.0297345
0.0244004
0.0199929
0.0162008
0.0126493
0.00935743
0.00634851
0.00361714
0.00115736
-0.00103499
-0.00296423
-0.00463503
-0.00605221
-0.00722074
-0.00814576
-0.00883258
-0.00928662
-0.00951351
-0.00951901
-0.00930906
-0.00888977
-0.00826742
-0.00744852
-0.00643975
-0.00524806
-0.00388061
-0.00234485
-0.000648482
0.00120046
0.00319364
0.00532236
0.00757757
0.00994982
0.0124293
0.0150057
0.0176685
0.0204066
0.0232084
0.0260621
0.0289552
0.0318751
0.0348086
0.0377423
0.0406624
0.0435548
0.0464052
0.049199
0.0519216
0.0545583
0.0570944
0.0595154
0.0618066
0.0639539
0.0659433
0.0677616
0.0693956
0.0708332
0.0720626
0.0730729
0.0738543
0.0743976
0.0746949
0.0747391
0.0745243
0.0740457
0.0732997
0.0722839
0.0709967
0.069438
0.0676083
0.0655092
0.0631432
0.0605136
0.0576245
0.0544783
0.0510782
0.0474548
0.043635
0.0392637
0.0340432
0.0296044
0.0240101
0.0193896
0.015417
0.0116993
0.00825644
0.00511279
0.00226242
-0.000301255
-0.00258304
-0.00458797
-0.00632145
-0.00778909
-0.00899665
-0.00995006
-0.0106554
-0.0111188
-0.0113466
-0.0113453
-0.0111214
-0.0106816
-0.0100328
-0.00918186
-0.00813596
-0.0069024
-0.00548872
-0.00390263
-0.00215212
-0.000245421
0.00180893
0.00400209
0.00632488
0.00876774
0.0113207
0.0139736
0.0167155
0.0195354
0.0224216
0.0253622
0.0283447
0.0313562
0.0343834
0.0374128
0.0404302
0.0434215
0.0463718
0.0492665
0.0520904
0.0548285
0.0574655
0.0599862
0.0623757
0.0646191
0.0667016
0.0686092
0.0703281
0.0718453
0.0731481
0.0742248
0.0750645
0.0756572
0.075994
0.0760669
0.0758692
0.0753951
0.0746401
0.0736009
0.0722755
0.0706629
0.0687631
0.0665774
0.0641079
0.0613577
0.0583307
0.0550296
0.0514574
0.047647
0.0436267
0.0390229
0.0335227
0.0291672
0.023312
0.0184782
0.014325
0.0104411
0.00684759
0.00356975
0.000601179
-0.00206535
-0.00443524
-0.0065142
-0.00830837
-0.0098241
-0.0110679
-0.0120466
-0.0127668
-0.0132355
-0.0134598
-0.0134468
-0.0132035
-0.0127374
-0.0120557
-0.011166
-0.0100757
-0.00879263
-0.0073246
-0.00567966
-0.00386605
-0.00189224
0.000233024
0.00250075
0.0049016
0.00742591
0.0100636
0.0128044
0.0156372
0.018551
0.0215341
0.0245742
0.0276589
0.0307751
0.0339094
0.037048
0.0401765
0.0432803
0.0463446
0.0493542
0.0522935
0.0551469
0.0578987
0.0605332
0.0630347
0.0653876
0.0675766
0.0695866
0.0714032
0.0730122
0.0744002
0.0755546
0.0764634
0.0771156
0.0775013
0.0776116
0.0774387
0.0769761
0.0762183
0.0751612
0.073802
0.0721391
0.070172
0.0679015
0.0653295
0.0624588
0.0592935
0.0558361
0.0520901
0.0480901
0.0438662
0.0390259
0.0332407
0.0284071
0.0222896
0.0172415
0.0129074
0.00885738
0.00511349
0.00170208
-0.00138373
-0.00415178
-0.00660808
-0.00875899
-0.0106114
-0.0121723
-0.0134491
-0.0144492
-0.0151801
-0.0156496
-0.0158653
-0.015835
-0.0155665
-0.0150676
-0.0143463
-0.0134105
-0.0122682
-0.0109275
-0.00939662
-0.00768396
-0.005798
-0.00374746
-0.00154128
0.000811348
0.00330094
0.00591771
0.00865149
0.0114917
0.0144275
0.0174475
0.0205399
0.0236924
0.0268924
0.0301266
0.0333814
0.0366429
0.0398963
0.0431269
0.0463193
0.049458
0.052527
0.0555103
0.0583914
0.061154
0.0637819
0.0662586
0.0685681
0.0706944
0.0726221
0.0743361
0.0758221
0.0770663
0.0780559
0.0787787
0.0792238
0.0793811
0.079242
0.0787989
0.0780455
0.0769767
0.0755891
0.0738803
0.0718493
0.0694965
0.0668234
0.063833
0.060529
0.0569142
0.0529923
0.0487998
0.0443688
0.0392871
0.0332105
0.027308
0.0209261
0.0156626
0.0111468
0.00693041
0.00303636
-0.000507942
-0.00370986
-0.00657785
-0.00911852
-0.0113389
-0.0132465
-0.0148492
-0.0161551
-0.0171724
-0.0179093
-0.0183743
-0.0185757
-0.0185221
-0.0182218
-0.0176833
-0.016915
-0.0159253
-0.0147229
-0.0133161
-0.0117136
-0.00992397
-0.00795609
-0.0058189
-0.00352156
-0.00107345
0.00151579
0.00423621
0.00707755
0.0100291
0.01308
0.0162185
0.0194329
0.0227107
0.0260391
0.0294048
0.0327939
0.0361922
0.0395847
0.0429564
0.0462915
0.049574
0.0527876
0.0559155
0.0589409
0.0618468
0.0646159
0.0672313
0.069676
0.0719332
0.0739864
0.0758195
0.0774171
0.0787645
0.0798475
0.080653
0.0811689
0.0813841
0.0812887
0.0808742
0.0801333
0.0790602
0.0776503
0.0759008
0.0738102
0.0713782
0.0686061
0.0654968
0.0620541
0.0582808
0.0541808
0.0497927
0.0451504
0.0398217
0.0334461
0.0258534
0.0192043
0.0137235
0.00902514
0.00464196
0.000597911
-0.00307855
-0.0063953
-0.00936141
-0.0119841
-0.014271
-0.0162305
-0.0178711
-0.0192017
-0.0202312
-0.0209688
-0.0214235
-0.0216044
-0.0215208
-0.0211816
-0.0205959
-0.0197728
-0.0187212
-0.01745
-0.0159681
-0.0142846
-0.0124085
-0.0103488
-0.00811474
-0.0057157
-0.00316128
-0.000461272
0.00237422
0.00533481
0.00840971
0.0115878
0.0148575
0.0182067
0.0216229
0.0250932
0.028604
0.0321412
0.0356905
0.0392365
0.0427639
0.0462566
0.049698
0.0530713
0.0563594
0.0595446
0.0626093
0.0655354
0.0683051
0.0709006
0.073304
0.0754979
0.0774652
0.0791891
0.0806538
0.0818441
0.0827456
0.0833449
0.0836298
0.0835892
0.0832135
0.0824944
0.081425
0.0800002
0.0782162
0.0760707
0.0735633
0.0706949
0.0674681
0.0638868
0.0599539
0.0556735
0.0510863
0.0462281
0.0406461
0.0339627
0.024026
0.0171062
0.011406
0.00652374
0.00197321
-0.00222075
-0.0060286
-0.00945875
-0.0125209
-0.0152229
-0.0175731
-0.0195806
-0.0212547
-0.0226051
-0.0236414
-0.0243736
-0.0248116
-0.0249652
-0.0248442
-0.0244585
-0.0238177
-0.0229313
-0.0218089
-0.0204598
-0.0188935
-0.0171194
-0.0151467
-0.0129849
-0.0106434
-0.00813185
-0.00546002
-0.00263788
0.00032432
0.00341605
0.00662643
0.00994421
0.0133577
0.0168547
0.0204226
0.0240483
0.027718
0.0314176
0.0351322
0.0388465
0.0425446
0.04621
0.0498258
0.0533746
0.0568387
0.0601998
0.0634394
0.0665389
0.0694793
0.0722419
0.0748079
0.0771587
0.0792761
0.0811421
0.0827396
0.084052
0.0850638
0.0857602
0.0861279
0.0861544
0.0858289
0.0851419
0.0840857
0.0826541
0.0808425
0.078648
0.0760697
0.073108
0.0697655
0.066046
0.0619524
0.0574893
0.0526992
0.0476201
0.0417776
0.0347767
0.0218076
0.0146132
0.0086908
0.00362322
-0.00109541
-0.00543923
-0.00937766
-0.0129196
-0.0160755
-0.0188538
-0.0212637
-0.0233148
-0.0250174
-0.026382
-0.0274191
-0.0281394
-0.0285536
-0.0286723
-0.0285062
-0.0280656
-0.0273608
-0.0264022
-0.0251997
-0.0237632
-0.0221026
-0.0202276
-0.0181479
-0.0158733
-0.0134135
-0.0107783
-0.0079777
-0.00502182
-0.00192105
0.00131393
0.00467215
0.00814223
0.0117124
0.0153704
0.0191034
0.0228982
0.0267409
0.0306171
0.0345117
0.0384091
0.0422932
0.0461469
0.049953
0.0536935
0.05735
0.0609036
0.0643351
0.0676249
0.0707533
0.0737003
0.0764461
0.078971
0.0812555
0.0832804
0.0850272
0.0864779
0.0876156
0.0884243
0.0888889
0.088996
0.0887333
0.0880901
0.0870576
0.0856284
0.0837972
0.0815603
0.0789163
0.0758651
0.072409
0.068552
0.0642969
0.0596485
0.0546515
0.0493459
0.0432351
0.0359059
0.0191794
0.0117057
0.00555809
0.000303335
-0.0045843
-0.009078
-0.0131461
-0.0167982
-0.0200452
-0.0228965
-0.0253617
-0.0274517
-0.0291774
-0.03055
-0.0315811
-0.0322823
-0.032665
-0.0327406
-0.0325207
-0.0320162
-0.0312383
-0.0301977
-0.0289052
-0.027371
-0.0256057
-0.0236192
-0.0214217
-0.0190232
-0.0164338
-0.0136635
-0.0107224
-0.00762091
-0.0043695
-0.000978943
0.00253965
0.00617483
0.00991472
0.013747
0.0176587
0.0216365
0.0256665
0.0297338
0.0338233
0.0379191
0.0420046
0.0460627
0.0500753
0.0540241
0.05789
0.0616534
0.0652942
0.0687922
0.0721264
0.075276
0.0782199
0.080937
0.0834068
0.0856086
0.0875224
0.0891289
0.0904095
0.0913467
0.091924
0.0921265
0.0919405
0.091354
0.0903567
0.0889404
0.0870987
0.084827
0.0821232
0.0789869
0.0754201
0.0714266
0.0670092
0.062173
0.0569649
0.0514268
0.045039
0.0373697
0.0161215
0.00836329
0.0019869
-0.0034571
-0.00851481
-0.0131585
-0.0173553
-0.0211155
-0.0244508
-0.0273712
-0.0298874
-0.0320108
-0.0337533
-0.0351273
-0.036145
-0.036819
-0.0371617
-0.0371854
-0.0369023
-0.0363243
-0.0354631
-0.0343303
-0.0329371
-0.0312946
-0.0294134
-0.0273043
-0.0249776
-0.0224437
-0.019713
-0.0167957
-0.0137022
-0.010443
-0.00702856
-0.00346992
0.000221794
0.00403504
0.00795786
0.0119778
0.016082
0.0202569
0.0244884
0.0287617
0.0330612
0.0373709
0.0416738
0.0459523
0.0501882
0.0543624
0.0584552
0.0624462
0.0663147
0.0700392
0.0735981
0.0769693
0.0801305
0.0830593
0.0857336
0.0881315
0.0902314
0.0920124
0.0934543
0.0945378
0.095245
0.0955591
0.0954651
0.0949495
0.0940006
0.0926088
0.0907667
0.0884689
0.0857123
0.082496
0.0788217
0.0746931
0.0701129
0.0650863
0.0596625
0.0538856
0.0472116
0.0391892
0.012613
0.0045643
-0.00204479
-0.00768038
-0.0129094
-0.017703
-0.0220276
-0.0258937
-0.0293142
-0.0322996
-0.0348615
-0.0370123
-0.038765
-0.0401327
-0.0411289
-0.041767
-0.0420604
-0.0420224
-0.0416659
-0.0410038
-0.0400486
-0.0388126
-0.0373075
-0.035545
-0.0335365
-0.0312929
-0.0288252
-0.026144
-0.0232598
-0.0201834
-0.0169251
-0.0134956
-0.00990564
-0.00616617
-0.00228842
0.00171601
0.00583512
0.0100565
0.014367
0.0187532
0.0232008
0.0276948
0.0322197
0.036759
0.0412954
0.0458111
0.0502873
0.0547043
0.059042
0.0632792
0.0673942
0.0713647
0.0751679
0.0787806
0.0821793
0.0853403
0.0882398
0.0908543
0.0931607
0.0951363
0.0967592
0.0980084
0.0988641
0.0993078
0.0993227
0.0988937
0.0980076
0.0966534
0.0948224
0.0925081
0.0897066
0.0864164
0.0826385
0.0783766
0.0736333
0.0684138
0.0627697
0.0567472
0.0497771
0.0413877
0.00863172
0.000286014
-0.00656018
-0.01239
-0.0177916
-0.0227354
-0.0271864
-0.0311562
-0.0346582
-0.0377039
-0.0403059
-0.0424775
-0.0442328
-0.045586
-0.0465516
-0.0471441
-0.047378
-0.0472676
-0.0468267
-0.0460692
-0.0450084
-0.0436572
-0.0420282
-0.0401336
-0.0379854
-0.035595
-0.0329738
-0.0301327
-0.0270827
-0.0238344
-0.0203987
-0.0167862
-0.0130079
-0.0090746
-0.00499772
-0.000788822
0.00354008
0.00797651
0.0125074
0.0171192
0.0217976
0.0265275
0.0312931
0.0360779
0.0408644
0.0456341
0.050368
0.0550459
0.059647
0.0641494
0.0685305
0.0727671
0.0768352
0.0807105
0.084368
0.0877827
0.0909291
0.0937822
0.096317
0.098509
0.100334
0.10177
0.102795
0.103387
0.10353
0.103205
0.102397
0.101095
0.0992883
0.0969686
0.0941313
0.0907739
0.0868973
0.0825045
0.077598
0.0721832
0.066314
0.0600388
0.0527619
0.0439906
0.00415436
-0.00449562
-0.0115838
-0.0176107
-0.0231865
-0.0282805
-0.0328567
-0.0369274
-0.0405069
-0.0436077
-0.0462434
-0.0484284
-0.0501779
-0.0515073
-0.0524324
-0.0529688
-0.0531321
-0.0529376
-0.0524003
-0.051535
-0.0503559
-0.0488768
-0.047111
-0.0450714
-0.0427705
-0.0402203
-0.0374326
-0.0344186
-0.0311896
-0.0277566
-0.0241304
-0.0203219
-0.0163419
-0.0122017
-0.0079124
-0.00348561
0.00106668
0.00573204
0.0104974
0.0153493
0.0202732
0.0252541
0.0302762
0.0353226
0.0403757
0.0454167
0.0504261
0.0553833
0.0602667
0.0650539
0.0697214
0.0742449
0.0785994
0.0827592
0.086698
0.0903892
0.0938058
0.0969208
0.0997073
0.102139
0.10419
0.105835
0.10705
0.107813
0.108104
0.107902
0.107191
0.105957
0.104189
0.101876
0.099013
0.0955966
0.0916266
0.087106
0.0820368
0.0764244
0.0703251
0.0637897
0.0561948
0.0470255
-0.000843807
-0.00980609
-0.0171417
-0.0233689
-0.0291205
-0.0343648
-0.0390647
-0.0432332
-0.0468858
-0.0500358
-0.052698
-0.0548882
-0.0566226
-0.0579181
-0.0587916
-0.0592601
-0.0593404
-0.0590491
-0.0584024
-0.0574159
-0.0561049
-0.0544842
-0.0525678
-0.0503693
-0.0479019
-0.0451781
-0.0422101
-0.0390097
-0.0355882
-0.0319569
-0.0281268
-0.0241089
-0.0199141
-0.0155534
-0.0110382
-0.00638
-0.0015906
0.00331758
0.00833163
0.013438
0.0186223
0.0238696
0.0291638
0.034488
0.0398245
0.0451543
0.0504573
0.0557125
0.0608978
0.06599
0.0709647
0.0757968
0.08046
0.0849273
0.0891709
0.0931627
0.0968739
0.100276
0.103339
0.106035
0.108337
0.110216
0.111646
0.112603
0.113063
0.113005
0.112411
0.111264
0.109549
0.107258
0.104381
0.100914
0.0968578
0.092213
0.086982
0.0811699
0.0748356
0.0680322
0.0601072
0.0505229
-0.006389
-0.0156725
-0.0232614
-0.0296925
-0.0356218
-0.0410164
-0.0458382
-0.0501011
-0.0538216
-0.0570143
-0.0596951
-0.0618811
-0.0635901