/*--------------------------------*- C++ -*----------------------------------*\
  =========                 |
  \\      /  F ield         | OpenFOAM: The Open Source CFD Toolbox
   \\    /   O peration     | Website:  https://openfoam.org
    \\  /    A nd           | Version:  7
     \\/     M anipulation  |
\*---------------------------------------------------------------------------*/
FoamFile
{
    version     2.0;
    format      ascii;
    class       surfaceScalarField;
    location    "0.5";
    object      phi;
}
// * * * * * * * * * * * * * * * * * * * * * * * * * * * * * * * * * * * * * //

dimensions      [0 3 -1 0 0 0 0];

internalField   nonuniform List<scalar> 
12640
(
1.8906e-10
-1.92116e-10
5.55764e-10
-3.66704e-10
8.83293e-10
-3.2753e-10
1.04647e-09
-1.63178e-10
9.83159e-10
6.3309e-11
6.66271e-10
3.16887e-10
8.89293e-11
5.77341e-10
-7.43763e-10
8.32692e-10
-1.8196e-09
1.07584e-09
-3.12212e-09
1.30252e-09
-4.63232e-09
1.51019e-09
-6.32972e-09
1.6974e-09
-8.19308e-09
1.86337e-09
-1.02009e-08
2.00779e-09
-1.23316e-08
2.13069e-09
-1.45639e-08
2.23231e-09
-1.68769e-08
2.31306e-09
-1.92504e-08
2.37347e-09
-2.16646e-08
2.41415e-09
-2.41003e-08
2.43578e-09
-2.65394e-08
2.43909e-09
-2.89643e-08
2.42484e-09
-3.13581e-08
2.39381e-09
-3.37049e-08
2.34682e-09
-3.59896e-08
2.28466e-09
-3.81977e-08
2.20818e-09
-4.03159e-08
2.11821e-09
-4.23315e-08
2.01557e-09
-4.42326e-08
1.90111e-09
-4.60083e-08
1.77568e-09
-4.76484e-08
1.64012e-09
-4.91437e-08
1.49529e-09
-5.04857e-08
1.34205e-09
-5.1667e-08
1.18127e-09
-5.26808e-08
1.01383e-09
-5.35215e-08
8.40613e-10
-5.4184e-08
6.62522e-10
-5.46645e-08
4.80474e-10
-5.49599e-08
2.954e-10
-5.50681e-08
1.08246e-10
-5.49881e-08
-8.00225e-11
-5.47197e-08
-2.68424e-10
-5.42637e-08
-4.55958e-10
-5.36221e-08
-6.41604e-10
-5.27978e-08
-8.24326e-10
-5.17947e-08
-1.00307e-09
-5.06179e-08
-1.17678e-09
-4.92736e-08
-1.34436e-09
-4.77688e-08
-1.50474e-09
-4.6112e-08
-1.65682e-09
-4.43125e-08
-1.79951e-09
-4.23808e-08
-1.93171e-09
-4.03285e-08
-2.05234e-09
-3.81681e-08
-2.16034e-09
-3.59135e-08
-2.25466e-09
-3.35792e-08
-2.33427e-09
-3.11811e-08
-2.39818e-09
-2.87356e-08
-2.44545e-09
-2.62604e-08
-2.47518e-09
-2.37739e-08
-2.48653e-09
-2.12952e-08
-2.47873e-09
-1.88441e-08
-2.45109e-09
-1.64411e-08
-2.403e-09
-1.41071e-08
-2.33397e-09
-1.18635e-08
-2.2436e-09
-9.73185e-09
-2.13168e-09
-7.73372e-09
-1.99813e-09
-5.89063e-09
-1.8431e-09
-4.22365e-09
-1.667e-09
-2.75306e-09
-1.4706e-09
-1.4979e-09
-1.25517e-09
-4.75191e-10
-1.0227e-09
3.01073e-10
-7.76252e-10
8.21671e-10
-5.20602e-10
1.08497e-09
-2.63324e-10
1.10173e-09
-1.67766e-11
9.03027e-10
1.98694e-10
5.54687e-10
3.48363e-10
1.83976e-10
3.70748e-10
1.83998e-10
3.65534e-10
-5.57651e-10
8.86606e-10
-8.87777e-10
1.21786e-09
-6.58788e-10
1.13614e-09
-8.14619e-11
5.03748e-10
6.95702e-10
-7.53185e-10
1.57382e-09
-2.66384e-09
2.488e-09
-5.22716e-09
3.39601e-09
-8.42171e-09
4.27039e-09
-1.22124e-08
5.09324e-09
-1.65552e-08
5.853e-09
-2.14002e-08
6.54231e-09
-2.66935e-08
7.15674e-09
-3.23796e-08
7.69385e-09
-3.84016e-08
8.15271e-09
-4.47027e-08
8.53339e-09
-5.12264e-08
8.83678e-09
-5.79172e-08
9.06432e-09
-6.4721e-08
9.2179e-09
-7.15849e-08
9.29974e-09
-7.84582e-08
9.31231e-09
-8.52916e-08
9.25827e-09
-9.20382e-08
9.14043e-09
-9.86531e-08
8.96171e-09
-1.05094e-07
8.7251e-09
-1.11319e-07
8.43368e-09
-1.17291e-07
8.09055e-09
-1.22975e-07
7.69888e-09
-1.28335e-07
7.26185e-09
-1.33342e-07
6.78269e-09
-1.37967e-07
6.26465e-09
-1.42183e-07
5.71102e-09
-1.45966e-07
5.12509e-09
-1.49295e-07
4.51024e-09
-1.52151e-07
3.86985e-09
-1.54517e-07
3.20735e-09
-1.56381e-07
2.52624e-09
-1.57731e-07
1.83004e-09
-1.58558e-07
1.12237e-09
-1.58856e-07
4.06882e-10
-1.58624e-07
-3.12703e-10
-1.5786e-07
-1.0326e-09
-1.56567e-07
-1.74894e-09
-1.5475e-07
-2.45783e-09
-1.52419e-07
-3.15529e-09
-1.49585e-07
-3.83728e-09
-1.46262e-07
-4.49973e-09
-1.42468e-07
-5.13853e-09
-1.38223e-07
-5.74955e-09
-1.33551e-07
-6.32863e-09
-1.28479e-07
-6.87163e-09
-1.23037e-07
-7.37442e-09
-1.17256e-07
-7.83293e-09
-1.11173e-07
-8.24315e-09
-1.04827e-07
-8.60114e-09
-9.82579e-08
-8.90311e-09
-9.15107e-08
-9.1454e-09
-8.46317e-08
-9.3245e-09
-7.76697e-08
-9.43717e-09
-7.06759e-08
-9.48036e-09
-6.37033e-08
-9.45134e-09
-5.68067e-08
-9.34772e-09
-5.00422e-08
-9.16748e-09
-4.34671e-08
-8.90906e-09
-3.71393e-08
-8.57141e-09
-3.11168e-08
-8.15414e-09
-2.54574e-08
-7.65761e-09
-2.02173e-08
-7.08312e-09
-1.54512e-08
-6.43315e-09
-1.121e-08
-5.71176e-09
-7.54013e-09
-4.92509e-09
-4.4806e-09
-4.08224e-09
-2.06035e-09
-3.1965e-09
-2.93594e-10
-2.28733e-09
8.26646e-10
-1.38354e-09
1.33804e-09
-5.28174e-10
1.32266e-09
2.14037e-10
9.24877e-10
7.46094e-10
3.70714e-10
9.24871e-10
5.54743e-10
3.30218e-10
-8.87871e-10
6.66464e-10
-1.22403e-09
6.13791e-10
-6.06117e-10
-8.89392e-11
6.21267e-10
-1.61267e-09
2.21943e-09
-4.05667e-09
4.01782e-09
-7.46539e-09
5.89671e-09
-1.18428e-08
7.77343e-09
-1.71636e-08
9.59114e-09
-2.33812e-08
1.13109e-08
-3.04345e-08
1.29063e-08
-3.82518e-08
1.43596e-08
-4.67546e-08
1.56595e-08
-5.58599e-08
1.67991e-08
-6.54822e-08
1.77751e-08
-7.55351e-08
1.85863e-08
-8.59319e-08
1.92336e-08
-9.6587e-08
1.97194e-08
-1.07416e-07
2.0047e-08
-1.18337e-07
2.02206e-08
-1.2927e-07
2.02452e-08
-1.40138e-07
2.01261e-08
-1.50866e-07
1.9869e-08
-1.61384e-07
1.948e-08
-1.71625e-07
1.89656e-08
-1.81523e-07
1.8332e-08
-1.91019e-07
1.75861e-08
-2.00055e-07
1.67346e-08
-2.08577e-07
1.57844e-08
-2.16537e-07
1.47424e-08
-2.23888e-07
1.36157e-08
-2.30588e-07
1.24114e-08
-2.366e-07
1.11369e-08
-2.41889e-07
9.79934e-09
-2.46425e-07
8.40622e-09
-2.50183e-07
6.96506e-09
-2.5314e-07
5.48348e-09
-2.5528e-07
3.96922e-09
-2.56587e-07
2.43017e-09
-2.57055e-07
8.74335e-10
-2.56677e-07
-6.90152e-10
-2.55455e-07
-2.25501e-09
-2.53392e-07
-3.81184e-09
-2.50498e-07
-5.3521e-09
-2.46786e-07
-6.86715e-09
-2.42275e-07
-8.34821e-09
-2.36988e-07
-9.78645e-09
-2.30954e-07
-1.11729e-08
-2.24205e-07
-1.24987e-08
-2.16779e-07
-1.37549e-08
-2.08718e-07
-1.49324e-08
-2.0007e-07
-1.60225e-08
-1.90886e-07
-1.70163e-08
-1.81224e-07
-1.79052e-08
-1.71145e-07
-1.8681e-08
-1.60712e-07
-1.93354e-08
-1.49997e-07
-1.98607e-08
-1.39072e-07
-2.02496e-08
-1.28014e-07
-2.04951e-08
-1.16903e-07
-2.05911e-08
-1.05823e-07
-2.0532e-08
-9.48575e-08
-2.03128e-08
-8.40952e-08
-1.99298e-08
-7.36243e-08
-1.938e-08
-6.35339e-08
-1.86618e-08
-5.39129e-08
-1.77752e-08
-4.48488e-08
-1.67217e-08
-3.64266e-08
-1.55053e-08
-2.87272e-08
-1.41325e-08
-2.18255e-08
-1.26135e-08
-1.57875e-08
-1.09631e-08
-1.06673e-08
-9.20237e-09
-6.50281e-09
-7.36105e-09
-3.30911e-09
-5.48104e-09
-1.07113e-09
-3.6215e-09
2.67044e-10
-1.86632e-09
8.15647e-10
-3.34559e-10
7.54751e-10
8.06966e-10
3.51097e-10
1.32848e-09
9.05855e-10
1.71862e-10
-1.05973e-09
1.0484e-10
-1.15701e-09
-5.87878e-10
8.65984e-11
-2.17033e-09
2.20372e-09
-4.8197e-09
4.8688e-09
-8.6424e-09
7.84052e-09
-1.36879e-08
1.09422e-08
-1.9961e-08
1.40465e-08
-2.74324e-08
1.70626e-08
-3.6047e-08
1.99255e-08
-4.57305e-08
2.25897e-08
-5.63944e-08
2.50235e-08
-6.79407e-08
2.72058e-08
-8.02644e-08
2.91229e-08
-9.32565e-08
3.07672e-08
-1.06806e-07
3.21354e-08
-1.208e-07
3.32277e-08
-1.35127e-07
3.40469e-08
-1.49678e-07
3.45976e-08
-1.64344e-07
3.48864e-08
-1.79019e-07
3.49208e-08
-1.93603e-07
3.47096e-08
-2.07996e-07
3.42621e-08
-2.22104e-07
3.35885e-08
-2.35838e-07
3.26992e-08
-2.49111e-07
3.16052e-08
-2.61843e-07
3.03177e-08
-2.73957e-07
2.88484e-08
-2.85381e-07
2.7209e-08
-2.9605e-07
2.54114e-08
-3.05902e-07
2.34677e-08
-3.14881e-07
2.13903e-08
-3.22936e-07
1.91917e-08
-3.30021e-07
1.68845e-08
-3.36096e-07
1.44815e-08
-3.41127e-07
1.19958e-08
-3.45084e-07
9.44054e-09
-3.47944e-07
6.82918e-09
-3.49689e-07
4.17536e-09
-3.50308e-07
1.49291e-09
-3.49794e-07
-1.20407e-09
-3.48148e-07
-3.90128e-09
-3.45375e-07
-6.58422e-09
-3.41489e-07
-9.23814e-09
-3.36508e-07
-1.18481e-08
-3.30457e-07
-1.43991e-08
-3.23368e-07
-1.68759e-08
-3.15278e-07
-1.92631e-08
-3.06231e-07
-2.15454e-08
-2.96279e-07
-2.37075e-08
-2.85477e-07
-2.5734e-08
-2.7389e-07
-2.76098e-08
-2.61586e-07
-2.93199e-08
-2.48642e-07
-3.08498e-08
-2.35137e-07
-3.21852e-08
-2.2116e-07
-3.33125e-08
-2.06802e-07
-3.42185e-08
-1.92161e-07
-3.4891e-08
-1.77338e-07
-3.53184e-08
-1.62438e-07
-3.54906e-08
-1.47572e-07
-3.53982e-08
-1.32851e-07
-3.50337e-08
-1.1839e-07
-3.4391e-08
-1.04304e-07
-3.3466e-08
-9.0709e-08
-3.22567e-08
-7.77201e-08
-3.07641e-08
-6.54498e-08
-2.89921e-08
-5.40065e-08
-2.69486e-08
-4.34926e-08
-2.46465e-08
-3.40016e-08
-2.21045e-08
-2.56151e-08
-1.93496e-08
-1.83987e-08
-1.64187e-08
-1.23972e-08
-1.33626e-08
-7.62753e-09
-1.02507e-08
-4.07156e-09
-7.17747e-09
-1.66606e-09
-4.2718e-09
-2.91198e-10
-1.7094e-09
2.42239e-10
2.73534e-10
2.07962e-10
1.36273e-09
1.11381e-09
-4.73977e-11
-1.01234e-09
-6.54323e-10
-5.50085e-10
-2.15865e-09
1.59092e-09
-4.80086e-09
4.84592e-09
-8.74516e-09
8.8131e-09
-1.40909e-08
1.31863e-08
-2.08831e-08
1.77344e-08
-2.91221e-08
2.22855e-08
-3.87721e-08
2.67126e-08
-4.97694e-08
3.09228e-08
-6.20283e-08
3.48486e-08
-7.54464e-08
3.84417e-08
-8.99093e-08
4.16687e-08
-1.05294e-07
4.45076e-08
-1.21472e-07
4.69448e-08
-1.3831e-07
4.89737e-08
-1.55675e-07
5.05929e-08
-1.73433e-07
5.18049e-08
-1.91451e-07
5.26158e-08
-2.09599e-07
5.30341e-08
-2.27749e-07
5.30705e-08
-2.45776e-07
5.27373e-08
-2.63562e-07
5.20481e-08
-2.80991e-07
5.10175e-08
-2.97953e-07
4.9661e-08
-3.14343e-07
4.7995e-08
-3.30061e-07
4.60361e-08
-3.45015e-07
4.38017e-08
-3.59115e-07
4.13095e-08
-3.72281e-07
3.85774e-08
-3.84437e-07
3.56238e-08
-3.95514e-07
3.24674e-08
-4.0545e-07
2.91272e-08
-4.14188e-07
2.56222e-08
-4.21678e-07
2.19721e-08
-4.27879e-07
1.81967e-08
-4.32755e-07
1.4316e-08
-4.36276e-07
1.03505e-08
-4.38422e-07
6.32092e-09
-4.39177e-07
2.24836e-09
-4.38535e-07
-1.84577e-09
-4.36497e-07
-5.93974e-09
-4.3307e-07
-1.00115e-08
-4.28269e-07
-1.40387e-08
-4.22118e-07
-1.79987e-08
-4.14649e-07
-2.18687e-08
-4.05899e-07
-2.56256e-08
-3.95916e-07
-2.92463e-08
-3.84754e-07
-3.27077e-08
-3.72475e-07
-3.59864e-08
-3.59149e-07
-3.90596e-08
-3.44854e-07
-4.19045e-08
-3.29676e-07
-4.44986e-08
-3.13705e-07
-4.682e-08
-2.97043e-07
-4.88476e-08
-2.79795e-07
-5.05608e-08
-2.62073e-07
-5.19404e-08
-2.43996e-07
-5.2968e-08
-2.25687e-07
-5.36269e-08
-2.07276e-07
-5.39021e-08
-1.88894e-07
-5.37803e-08
-1.70677e-07
-5.32508e-08
-1.52763e-07
-5.23051e-08
-1.35291e-07
-5.09381e-08
-1.18399e-07
-4.91481e-08
-1.02226e-07
-4.69376e-08
-8.69039e-08
-4.43139e-08
-7.25618e-08
-4.12906e-08
-5.93199e-08
-3.78884e-08
-4.72873e-08
-3.41372e-08
-3.65587e-08
-3.00782e-08
-2.721e-08
-2.57673e-08
-1.92933e-08
-2.12794e-08
-1.28303e-08
-1.67137e-08
-7.80573e-09
-1.22021e-08
-4.1587e-09
-7.91884e-09
-1.77391e-09
-4.09417e-09
-4.71851e-10
-1.0285e-09
2.20146e-12
8.88675e-10
1.116e-09
-2.94291e-10
-7.18048e-10
-1.51854e-09
6.74161e-10
-3.94148e-09
4.01386e-09
-7.76229e-09
8.66673e-09
-1.31182e-08
1.4169e-08
-2.00907e-08
2.01588e-08
-2.87119e-08
2.63556e-08
-3.89719e-08
3.25455e-08
-5.08255e-08
3.85663e-08
-6.41989e-08
4.42962e-08
-7.89948e-08
4.96445e-08
-9.50983e-08
5.45452e-08
-1.12381e-07
5.8951e-08
-1.30703e-07
6.28298e-08
-1.49919e-07
6.61612e-08
-1.69879e-07
6.89338e-08
-1.9043e-07
7.11441e-08
-2.1142e-07
7.27939e-08
-2.32694e-07
7.38903e-08
-2.54104e-07
7.44438e-08
-2.75501e-07
7.44681e-08
-2.96743e-07
7.39793e-08
-3.17691e-07
7.29956e-08
-3.3821e-07
7.15368e-08
-3.58173e-07
6.9624e-08
-3.77458e-07
6.72795e-08
-3.95948e-07
6.45262e-08
-4.13534e-07
6.13882e-08
-4.30115e-07
5.78899e-08
-4.45593e-07
5.40563e-08
-4.59883e-07
4.99131e-08
-4.72901e-07
4.54863e-08
-4.84577e-07
4.08023e-08
-4.94842e-07
3.58881e-08
-5.03641e-07
3.0771e-08
-5.10924e-07
2.54788e-08
-5.16647e-07
2.00397e-08
-5.20779e-07
1.44823e-08
-5.23294e-07
8.83579e-09
-5.24175e-07
3.12961e-09
-5.23415e-07
-2.60619e-09
-5.21013e-07
-8.34115e-09
-5.16981e-07
-1.40444e-08
-5.11335e-07
-1.96847e-08
-5.04103e-07
-2.52304e-08
-4.95322e-07
-3.06496e-08
-4.85037e-07
-3.59101e-08
-4.73304e-07
-4.09798e-08
-4.60185e-07
-4.58263e-08
-4.45754e-07
-5.04174e-08
-4.30093e-07
-5.4721e-08
-4.13292e-07
-5.87057e-08
-3.9545e-07
-6.23404e-08
-3.76675e-07
-6.55948e-08
-3.57083e-07
-6.84396e-08
-3.36797e-07
-7.08467e-08
-3.15948e-07
-7.27896e-08
-2.94673e-07
-7.42432e-08
-2.73115e-07
-7.5185e-08
-2.51422e-07
-7.55945e-08
-2.29749e-07
-7.54542e-08
-2.08249e-07
-7.47498e-08
-1.87084e-07
-7.34708e-08
-1.66411e-07
-7.16111e-08
-1.46389e-07
-6.91695e-08
-1.27176e-07
-6.6151e-08
-1.08923e-07
-6.25673e-08
-9.17748e-08
-5.84386e-08
-7.58682e-08
-5.37951e-08
-6.13261e-08
-4.86792e-08
-4.82556e-08
-4.31487e-08
-3.67431e-08
-3.72798e-08
-2.68496e-08
-3.11728e-08
-1.86053e-08
-2.49581e-08
-1.20033e-08
-1.88041e-08
-6.99372e-09
-1.29285e-08
-3.47645e-09
-7.61143e-09
-1.29551e-09
-3.20942e-09
-2.32848e-10
-1.73977e-10
8.8314e-10
-5.50662e-10
-1.67387e-10
-2.43017e-09
2.55367e-09
-5.83169e-09
7.41537e-09
-1.09032e-08
1.37382e-08
-1.77456e-08
2.10115e-08
-2.64142e-08
2.88273e-08
-3.69215e-08
3.68629e-08
-4.92424e-08
4.48663e-08
-6.33185e-08
5.26423e-08
-7.90635e-08
6.00412e-08
-9.63682e-08
6.69493e-08
-1.15105e-07
7.32818e-08
-1.35131e-07
7.89773e-08
-1.56294e-07
8.39925e-08
-1.78432e-07
8.82992e-08
-2.01379e-07
9.18809e-08
-2.24966e-07
9.4731e-08
-2.49022e-07
9.68504e-08
-2.73379e-07
9.82467e-08
-2.97867e-07
9.89322e-08
-3.22323e-07
9.89239e-08
-3.46586e-07
9.82419e-08
-3.70499e-07
9.69091e-08
-3.93913e-07
9.49509e-08
-4.16684e-07
9.23946e-08
-4.38673e-07
8.92689e-08
-4.59751e-07
8.56038e-08
-4.79793e-07
8.14307e-08
-4.98685e-07
7.67816e-08
-5.16318e-07
7.16895e-08
-5.32593e-07
6.61881e-08
-5.47419e-07
6.03117e-08
-5.60712e-07
5.40955e-08
-5.72399e-07
4.75749e-08
-5.82414e-07
4.07861e-08
-5.90701e-07
3.37661e-08
-5.97213e-07
2.6552e-08
-6.01913e-07
1.91819e-08
-6.04771e-07
1.16944e-08
-6.0577e-07
4.12853e-09
-6.04901e-07
-3.47585e-09
-6.02163e-07
-1.10785e-08
-5.97569e-07
-1.86385e-08
-5.91139e-07
-2.61145e-08
-5.82905e-07
-3.34648e-08
-5.72907e-07
-4.06472e-08
-5.61198e-07
-4.76193e-08
-5.4784e-07
-5.43386e-08
-5.32903e-07
-6.07625e-08
-5.16472e-07
-6.68487e-08
-4.98638e-07
-7.2555e-08
-4.79504e-07
-7.78401e-08
-4.59181e-07
-8.26633e-08
-4.37791e-07
-8.69849e-08
-4.15464e-07
-9.07666e-08
-3.92339e-07
-9.39719e-08
-3.68562e-07
-9.65662e-08
-3.44288e-07
-9.85173e-08
-3.19677e-07
-9.97958e-08
-2.94896e-07
-1.00376e-07
-2.70115e-07
-1.00235e-07
-2.45509e-07
-9.93556e-08
-2.21255e-07
-9.77248e-08
-1.9753e-07
-9.53359e-08
-1.74511e-07
-9.21886e-08
-1.52371e-07
-8.82907e-08
-1.31279e-07
-8.36593e-08
-1.11396e-07
-7.8322e-08
-9.28713e-08
-7.23196e-08
-7.58423e-08
-6.57083e-08
-6.04282e-08
-5.85628e-08
-4.67272e-08
-5.09809e-08
-3.48116e-08
-4.30884e-08
-2.47236e-08
-3.5046e-08
-1.64704e-08
-2.70573e-08
-1.00192e-08
-1.93797e-08
-5.29371e-09
-1.23369e-08
-2.17065e-09
-6.33248e-09
-4.78782e-10
-1.86583e-09
4.04357e-10
-8.06639e-10
6.39249e-10
-3.35442e-09
5.10144e-09
-7.76203e-09
1.1823e-08
-1.41221e-08
2.00983e-08
-2.24936e-08
2.9383e-08
-3.29e-08
3.92337e-08
-4.53292e-08
4.92921e-08
-5.97361e-08
5.92732e-08
-7.60459e-08
6.89521e-08
-9.41576e-08
7.81529e-08
-1.13948e-07
8.67401e-08
-1.35277e-07
9.46106e-08
-1.57988e-07
1.01688e-07
-1.81914e-07
1.07919e-07
-2.06881e-07
1.13265e-07
-2.32706e-07
1.17706e-07
-2.59207e-07
1.21232e-07
-2.86197e-07
1.2384e-07
-3.13491e-07
1.25541e-07
-3.40907e-07
1.26348e-07
-3.68263e-07
1.2628e-07
-3.95384e-07
1.25363e-07
-4.22099e-07
1.23624e-07
-4.48243e-07
1.21095e-07
-4.73657e-07
1.17809e-07
-4.9819e-07
1.13802e-07
-5.21698e-07
1.09112e-07
-5.44046e-07
1.03778e-07
-5.65104e-07
9.78405e-08
-5.84756e-07
9.13412e-08
-6.02891e-07
8.43226e-08
-6.19407e-07
7.68282e-08
-6.34214e-07
6.89026e-08
-6.4723e-07
6.05908e-08
-6.58383e-07
5.19389e-08
-6.6761e-07
4.29935e-08
-6.74861e-07
3.38023e-08
-6.80092e-07
2.44135e-08
-6.83274e-07
1.4876e-08
-6.84385e-07
5.23975e-09
-6.83416e-07
-4.44481e-09
-6.80368e-07
-1.41265e-08
-6.75253e-07
-2.37534e-08
-6.68095e-07
-3.3273e-08
-6.58927e-07
-4.26323e-08
-6.47796e-07
-5.17781e-08
-6.34759e-07
-6.06564e-08
-6.19884e-07
-6.92135e-08
-6.03251e-07
-7.73956e-08
-5.84951e-07
-8.5149e-08
-5.65085e-07
-9.24209e-08
-5.43767e-07
-9.91587e-08
-5.21119e-07
-1.05311e-07
-4.97274e-07
-1.10829e-07
-4.72378e-07
-1.15664e-07
-4.4658e-07
-1.19769e-07
-4.20044e-07
-1.23103e-07
-3.92938e-07
-1.25624e-07
-3.65437e-07
-1.27296e-07
-3.37725e-07
-1.28088e-07
-3.09989e-07
-1.27972e-07
-2.82419e-07
-1.26926e-07
-2.55208e-07
-1.24936e-07
-2.2855e-07
-1.21994e-07
-2.02638e-07
-1.18101e-07
-1.7766e-07
-1.13268e-07
-1.53801e-07
-1.07518e-07
-1.31236e-07
-1.00887e-07
-1.10128e-07
-9.34272e-08
-9.06288e-08
-8.52077e-08
-7.28701e-08
-7.63215e-08
-5.69635e-08
-6.68875e-08
-4.29952e-08
-5.70567e-08
-3.1023e-08
-4.70182e-08
-2.10721e-08
-3.70082e-08
-1.31327e-08
-2.73191e-08
-7.15752e-09
-1.83122e-08
-3.06176e-09
-1.04282e-08
-7.2535e-10
-4.20224e-09
-3.20985e-10
-1.05712e-09
1.69637e-09
-4.27101e-09
8.31533e-09
-9.69062e-09
1.72426e-08
-1.73528e-08
2.77605e-08
-2.72723e-08
3.93025e-08
-3.94368e-08
5.13982e-08
-5.38059e-08
6.36612e-08
-7.03112e-08
7.57785e-08
-8.88583e-08
8.74992e-08
-1.09329e-07
9.86241e-08
-1.31586e-07
1.08997e-07
-1.55474e-07
1.18498e-07
-1.80822e-07
1.27036e-07
-2.0745e-07
1.34547e-07
-2.3517e-07
1.40985e-07
-2.63786e-07
1.46323e-07
-2.93101e-07
1.50547e-07
-3.22916e-07
1.53655e-07
-3.5303e-07
1.55656e-07
-3.83248e-07
1.56565e-07
-4.13374e-07
1.56406e-07
-4.43218e-07
1.55208e-07
-4.72597e-07
1.53003e-07
-5.01332e-07
1.4983e-07
-5.29252e-07
1.45728e-07
-5.56192e-07
1.40742e-07
-5.81998e-07
1.34918e-07
-6.06521e-07
1.28302e-07
-6.29625e-07
1.20944e-07
-6.5118e-07
1.12896e-07
-6.71066e-07
1.04209e-07
-6.89175e-07
9.49374e-08
-7.05408e-07
8.51352e-08
-7.19675e-07
7.48582e-08
-7.31899e-07
6.41629e-08
-7.42013e-07
5.31069e-08
-7.49959e-07
4.17488e-08
-7.55694e-07
3.01479e-08
-7.59182e-07
1.83647e-08
-7.60403e-07
6.46042e-09
-7.59345e-07
-5.50267e-09
-7.5601e-07
-1.74616e-08
-7.50411e-07
-2.93524e-08
-7.42573e-07
-4.11108e-08
-7.32534e-07
-5.26714e-08
-7.20343e-07
-6.39687e-08
-7.06063e-07
-7.49367e-08
-6.89767e-07
-8.55093e-08
-6.71542e-07
-9.56207e-08
-6.51486e-07
-1.05205e-07
-6.2971e-07
-1.14197e-07
-6.06335e-07
-1.22534e-07
-5.81494e-07
-1.30152e-07
-5.55333e-07
-1.3699e-07
-5.28005e-07
-1.42991e-07
-4.99677e-07
-1.48098e-07
-4.70521e-07
-1.52258e-07
-4.4072e-07
-1.55424e-07
-4.10465e-07
-1.57551e-07
-3.79952e-07
-1.58601e-07
-3.49383e-07
-1.58541e-07
-3.18963e-07
-1.57346e-07
-2.889e-07
-1.54998e-07
-2.59404e-07
-1.5149e-07
-2.3068e-07
-1.46824e-07
-2.02934e-07
-1.41014e-07
-1.76363e-07
-1.3409e-07
-1.51156e-07
-1.26094e-07
-1.27492e-07
-1.17091e-07
-1.05535e-07
-1.07164e-07
-8.54325e-08
-9.64242e-08
-6.73103e-08
-8.50098e-08
-5.12711e-08
-7.30958e-08
-3.73913e-08
-6.0898e-08
-2.57179e-08
-4.86816e-08
-1.62673e-08
-3.67696e-08
-9.02525e-09
-2.55542e-08
-3.94797e-09
-1.55055e-08
-9.67184e-10
-7.18303e-09
-1.28816e-09
-1.29971e-09
2.99608e-09
-5.16877e-09
1.21844e-08
-1.15926e-08
2.36664e-08
-2.05541e-08
3.67221e-08
-3.20231e-08
5.07714e-08
-4.595e-08
6.53251e-08
-6.22633e-08
7.99745e-08
-8.08689e-08
9.43841e-08
-1.0165e-07
1.08281e-07
-1.24471e-07
1.21445e-07
-1.49175e-07
1.33701e-07
-1.75593e-07
1.44915e-07
-2.03539e-07
1.54983e-07
-2.32819e-07
1.63828e-07
-2.63232e-07
1.71398e-07
-2.94569e-07
1.7766e-07
-3.26619e-07
1.82597e-07
-3.59169e-07
1.86205e-07
-3.92007e-07
1.88494e-07
-4.24923e-07
1.89481e-07
-4.5771e-07
1.89193e-07
-4.90167e-07
1.87664e-07
-5.22095e-07
1.84931e-07
-5.53305e-07
1.8104e-07
-5.83614e-07
1.76038e-07
-6.12848e-07
1.69976e-07
-6.40839e-07
1.62909e-07
-6.67431e-07
1.54894e-07
-6.92476e-07
1.45989e-07
-7.15836e-07
1.36256e-07
-7.37384e-07
1.25757e-07
-7.57002e-07
1.14556e-07
-7.74586e-07
1.02719e-07
-7.90039e-07
9.03116e-08
-8.03279e-07
7.74027e-08
-8.14233e-07
6.4061e-08
-8.22841e-07
5.03569e-08
-8.29055e-07
3.63619e-08
-8.32839e-07
2.21484e-08
-8.34169e-07
7.79003e-09
-8.33033e-07
-6.63844e-09
-8.29433e-07
-2.10614e-08
-8.23383e-07
-3.54022e-08
-8.14911e-07
-4.95834e-08
-8.04055e-07
-6.35269e-08
-7.9087e-07
-7.71541e-08
-7.7542e-07
-9.03859e-08
-7.57787e-07
-1.03143e-07
-7.3806e-07
-1.15347e-07
-7.16347e-07
-1.26919e-07
-6.92764e-07
-1.37781e-07
-6.67441e-07
-1.47857e-07
-6.40521e-07
-1.57072e-07
-6.12158e-07
-1.65353e-07
-5.82517e-07
-1.72632e-07
-5.51775e-07
-1.78841e-07
-5.20115e-07
-1.83917e-07
-4.87735e-07
-1.87805e-07
-4.54835e-07
-1.90451e-07
-4.21626e-07
-1.9181e-07
-3.88323e-07
-1.91844e-07
-3.55145e-07
-1.90524e-07
-3.22313e-07
-1.8783e-07
-2.90051e-07
-1.83752e-07
-2.5858e-07
-1.78295e-07
-2.28118e-07
-1.71477e-07
-1.98876e-07
-1.63331e-07
-1.71059e-07
-1.53911e-07
-1.4486e-07
-1.43291e-07
-1.20456e-07
-1.31568e-07
-9.80123e-08
-1.18868e-07
-7.76704e-08
-1.05352e-07
-5.95521e-08
-9.12141e-08
-4.37545e-08
-7.66957e-08
-3.03491e-08
-6.2087e-08
-1.93813e-08
-4.77374e-08
-1.08715e-08
-3.40641e-08
-4.81771e-09
-2.15593e-08
-1.20172e-09
-1.0799e-08
-2.48987e-09
-1.53353e-09
4.5296e-09
-6.04219e-09
1.6693e-08
-1.34542e-08
3.10784e-08
-2.37017e-08
4.69696e-08
-3.67102e-08
6.37799e-08
-5.23923e-08
8.10071e-08
-7.06441e-08
9.82263e-08
-9.13437e-08
1.15084e-07
-1.14351e-07
1.31288e-07
-1.39508e-07
1.46602e-07
-1.66642e-07
1.60835e-07
-1.95564e-07
1.73837e-07
-2.26076e-07
1.85494e-07
-2.57968e-07
1.9572e-07
-2.91024e-07
2.04454e-07
-3.25024e-07
2.1166e-07
-3.59744e-07
2.17316e-07
-3.94957e-07
2.21419e-07
-4.30441e-07
2.23977e-07
-4.65972e-07
2.25012e-07
-5.01332e-07
2.24553e-07
-5.36307e-07
2.22639e-07
-5.7069e-07
2.19314e-07
-6.04279e-07
2.14629e-07
-6.36882e-07
2.0864e-07
-6.68313e-07
2.01407e-07
-6.98396e-07
1.92992e-07
-7.26965e-07
1.83463e-07
-7.53864e-07
1.72888e-07
-7.78948e-07
1.6134e-07
-8.02081e-07
1.4889e-07
-8.2314e-07
1.35615e-07
-8.42012e-07
1.21591e-07
-8.58597e-07
1.06897e-07
-8.72806e-07
9.16123e-08
-8.84564e-07
7.58188e-08
-8.93807e-07
5.95992e-08
-9.00482e-07
4.30374e-08
-9.04553e-07
2.62189e-08
-9.05993e-07
9.23029e-09
-9.04791e-07
-7.84053e-09
-9.00948e-07
-2.49045e-08
-8.94478e-07
-4.18716e-08
-8.85411e-07
-5.86506e-08
-8.73788e-07
-7.51499e-08
-8.59665e-07
-9.12768e-08
-8.43113e-07
-1.06939e-07
-8.24213e-07
-1.22042e-07
-8.03065e-07
-1.36495e-07
-7.79778e-07
-1.50205e-07
-7.54477e-07
-1.63082e-07
-7.273e-07
-1.75034e-07
-6.98397e-07
-1.85975e-07
-6.6793e-07
-1.9582e-07
-6.36073e-07
-2.04488e-07
-6.03014e-07
-2.119e-07
-5.68948e-07
-2.17984e-07
-5.3408e-07
-2.22673e-07
-4.98626e-07
-2.25906e-07
-4.62805e-07
-2.2763e-07
-4.26847e-07
-2.27802e-07
-3.90983e-07
-2.26388e-07
-3.55448e-07
-2.23365e-07
-3.20478e-07
-2.18722e-07
-2.86308e-07
-2.12465e-07
-2.53169e-07
-2.04615e-07
-2.21289e-07
-1.95212e-07
-1.90884e-07
-1.84316e-07
-1.62164e-07
-1.72011e-07
-1.35324e-07
-1.58408e-07
-1.10542e-07
-1.4365e-07
-8.79815e-08
-1.27913e-07
-6.77828e-08
-1.11413e-07
-5.00664e-08
-9.4412e-08
-3.49304e-08
-7.7223e-08
-2.24506e-08
-6.02172e-08
-1.26825e-08
-4.38321e-08
-5.66535e-09
-2.85765e-08
-1.428e-09
-1.50364e-08
-3.91787e-09
-1.75855e-09
6.28815e-09
-6.88929e-09
2.18238e-08
-1.52692e-08
3.94582e-08
-2.6783e-08
5.84834e-08
-4.13137e-08
7.83106e-08
-5.87362e-08
9.84296e-08
-7.89137e-08
1.18404e-07
-1.01695e-07
1.37865e-07
-1.26916e-07
1.56508e-07
-1.54395e-07
1.74081e-07
-1.8394e-07
1.9038e-07
-2.15344e-07
2.05242e-07
-2.48394e-07
2.18543e-07
-2.82864e-07
2.3019e-07
-3.18524e-07
2.40115e-07
-3.55141e-07
2.48277e-07
-3.92477e-07
2.54652e-07
-4.30296e-07
2.59237e-07
-4.68361e-07
2.62042e-07
-5.06438e-07
2.63089e-07
-5.44298e-07
2.62414e-07
-5.81717e-07
2.60058e-07
-6.18476e-07
2.56073e-07
-6.54365e-07
2.50518e-07
-6.89181e-07
2.43456e-07
-7.22729e-07
2.34955e-07
-7.54826e-07
2.25089e-07
-7.85298e-07
2.13934e-07
-8.13979e-07
2.0157e-07
-8.40718e-07
1.88078e-07
-8.65373e-07
1.73545e-07
-8.87813e-07
1.58056e-07
-9.07923e-07
1.417e-07
-9.25595e-07
1.24569e-07
-9.40737e-07
1.06754e-07
-9.53269e-07
8.83508e-08
-9.63123e-07
6.9454e-08
-9.70247e-07
5.01613e-08
-9.746e-07
3.05715e-08
-9.76154e-07
1.07849e-08
-9.74898e-07
-9.09669e-09
-9.70832e-07
-2.89704e-08
-9.63972e-07
-4.87318e-08
-9.54347e-07
-6.82758e-08
-9.42001e-07
-8.7496e-08
-9.26992e-07
-1.06286e-07
-9.09394e-07
-1.24537e-07
-8.89293e-07
-1.42143e-07
-8.66791e-07
-1.58997e-07
-8.42004e-07
-1.74992e-07
-8.15062e-07
-1.90023e-07
-7.8611e-07
-2.03986e-07
-7.55304e-07
-2.16781e-07
-7.22814e-07
-2.2831e-07
-6.88825e-07
-2.38477e-07
-6.5353e-07
-2.47195e-07
-6.17135e-07
-2.54378e-07
-5.79857e-07
-2.59951e-07
-5.41919e-07
-2.63843e-07
-5.03555e-07
-2.65994e-07
-4.65005e-07
-2.66353e-07
-4.26511e-07
-2.64882e-07
-3.88322e-07
-2.61554e-07
-3.50687e-07
-2.56357e-07
-3.13854e-07
-2.49299e-07
-2.78068e-07
-2.40401e-07
-2.43572e-07
-2.29709e-07
-2.10597e-07
-2.1729e-07
-1.79369e-07
-2.03239e-07
-1.50099e-07
-1.87678e-07
-1.22984e-07
-1.70764e-07
-9.82075e-08
-1.52689e-07
-7.59319e-08
-1.33689e-07
-5.63021e-08
-1.14042e-07
-3.94436e-08
-9.40815e-08
-2.54634e-08
-7.41974e-08
-1.44523e-08
-5.48432e-08
-6.48901e-09
-3.65398e-08
-1.64602e-09
-1.98794e-08
-5.5639e-09
-1.97527e-09
8.26341e-09
-7.71029e-09
2.75588e-08
-1.70361e-08
4.8784e-08
-2.97936e-08
7.1241e-08
-4.58251e-08
9.43422e-08
-6.49687e-08
1.17573e-07
-8.70545e-08
1.40489e-07
-1.11902e-07
1.62713e-07
-1.3932e-07
1.83926e-07
-1.69105e-07
2.03866e-07
-2.01044e-07
2.22318e-07
-2.3491e-07
2.39109e-07
-2.70473e-07
2.54106e-07
-3.07493e-07
2.67209e-07
-3.45725e-07
2.78347e-07
-3.84921e-07
2.87472e-07
-4.24831e-07
2.94563e-07
-4.65208e-07
2.99614e-07
-5.05802e-07
3.02636e-07
-5.46369e-07
3.03657e-07
-5.8667e-07
3.02715e-07
-6.2647e-07
2.99858e-07
-6.65542e-07
2.95145e-07
-7.03665e-07
2.88641e-07
-7.40628e-07
2.80419e-07
-7.76228e-07
2.70556e-07
-8.10275e-07
2.59136e-07
-8.42585e-07
2.46244e-07
-8.72989e-07
2.31973e-07
-9.01326e-07
2.16416e-07
-9.2745e-07
1.99669e-07
-9.51226e-07
1.81831e-07
-9.72529e-07
1.63004e-07
-9.91252e-07
1.43291e-07
-1.0073e-06
1.22799e-07
-1.02058e-06
1.01633e-07
-1.03103e-06
7.9905e-08
-1.03859e-06
5.77244e-08
-1.04323e-06
3.52044e-08
-1.0449e-06
1.24596e-08
-1.0436e-06
-1.03939e-08
-1.03934e-06
-3.32387e-08
-1.03211e-06
-5.59557e-08
-1.02196e-06
-7.84249e-08
-1.00893e-06
-1.00525e-07
-9.93084e-07
-1.22134e-07
-9.74492e-07
-1.4313e-07
-9.53245e-07
-1.6339e-07
-9.2945e-07
-1.82792e-07
-9.03226e-07
-2.01216e-07
-8.7471e-07
-2.18539e-07
-8.4405e-07
-2.34646e-07
-8.11411e-07
-2.49421e-07
-7.76969e-07
-2.62752e-07
-7.40914e-07
-2.74532e-07
-7.03451e-07
-2.84658e-07
-6.64792e-07
-2.93037e-07
-6.25164e-07
-2.99579e-07
-5.84801e-07
-3.04206e-07
-5.43947e-07
-3.06848e-07
-5.02852e-07
-3.07448e-07
-4.61772e-07
-3.05962e-07
-4.20967e-07
-3.02359e-07
-3.80699e-07
-2.96626e-07
-3.41229e-07
-2.88769e-07
-3.02817e-07
-2.78812e-07
-2.6572e-07
-2.66806e-07
-2.30187e-07
-2.52824e-07
-1.96458e-07
-2.36968e-07
-1.64763e-07
-2.19373e-07
-1.35321e-07
-2.00207e-07
-1.08333e-07
-1.79677e-07
-8.39862e-08
-1.58035e-07
-6.24514e-08
-1.35577e-07
-4.3882e-08
-1.12651e-07
-2.84165e-08
-8.96629e-08
-1.61802e-08
-6.70795e-08
-7.28918e-09
-4.54307e-08
-1.85633e-09
-2.53122e-08
-7.42023e-09
-2.18441e-09
1.04478e-08
-8.50674e-09
3.38811e-08
-1.87566e-08
5.90338e-08
-3.27342e-08
8.52186e-08
-5.02436e-08
1.11851e-07
-7.10868e-08
1.38416e-07
-9.50614e-08
1.64464e-07
-1.21957e-07
1.89609e-07
-1.51556e-07
2.13525e-07
-1.83631e-07
2.35941e-07
-2.17945e-07
2.56632e-07
-2.54255e-07
2.75419e-07
-2.92311e-07
2.92162e-07
-3.31856e-07
3.06755e-07
-3.72632e-07
3.19122e-07
-4.14376e-07
3.29217e-07
-4.56827e-07
3.37013e-07
-4.99722e-07
3.42509e-07
-5.42804e-07
3.45718e-07
-5.85816e-07
3.4667e-07
-6.2851e-07
3.45408e-07
-6.7064e-07
3.41988e-07
-7.11971e-07
3.36476e-07
-7.52274e-07
3.28944e-07
-7.9133e-07
3.19474e-07
-8.28929e-07
3.08155e-07
-8.64871e-07
2.95078e-07
-8.98969e-07
2.80342e-07
-9.31045e-07
2.64049e-07
-9.60934e-07
2.46305e-07
-9.88485e-07
2.27219e-07
-1.01356e-06
2.06902e-07
-1.03602e-06
1.85468e-07
-1.05576e-06
1.63035e-07
-1.07269e-06
1.39722e-07
-1.0867e-06
1.15649e-07
-1.09774e-06
9.09404e-08
-1.10573e-06
6.57212e-08
-1.11065e-06
4.01187e-08
-1.11245e-06
1.42618e-08
-1.11113e-06
-1.17184e-08
-1.10668e-06
-3.76894e-08
-1.09911e-06
-6.35172e-08
-1.08847e-06
-8.90662e-08
-1.0748e-06
-1.142e-07
-1.05815e-06
-1.38781e-07
-1.03861e-06
-1.62671e-07
-1.01627e-06
-1.85733e-07
-9.91233e-07
-2.07828e-07
-9.63629e-07
-2.28819e-07
-9.33595e-07
-2.48573e-07
-9.01287e-07
-2.66955e-07
-8.66873e-07
-2.83835e-07
-8.30536e-07
-2.99088e-07
-7.92474e-07
-3.12593e-07
-7.52897e-07
-3.24235e-07
-7.12028e-07
-3.33906e-07
-6.701e-07
-3.41507e-07
-6.27358e-07
-3.46948e-07
-5.84056e-07
-3.50151e-07
-5.40453e-07
-3.5105e-07
-4.96819e-07
-3.49596e-07
-4.53425e-07
-3.45753e-07
-4.10546e-07
-3.39505e-07
-3.68456e-07
-3.30858e-07
-3.27432e-07
-3.19836e-07
-2.87744e-07
-3.06494e-07
-2.49659e-07
-2.90909e-07
-2.13434e-07
-2.73193e-07
-1.79319e-07
-2.53488e-07
-1.47552e-07
-2.31974e-07
-1.18357e-07
-2.08872e-07
-9.19459e-08
-1.84446e-07
-6.85153e-08
-1.59007e-07
-4.82477e-08
-1.32918e-07
-3.13126e-08
-1.06598e-07
-1.78687e-08
-8.05234e-08
-8.06787e-09
-5.52316e-08
-2.05979e-09
-3.13203e-08
-9.48001e-09
-2.38688e-09
1.28347e-08
-9.28095e-09
4.07752e-08
-2.04342e-08
7.0187e-08
-3.56093e-08
1.00394e-07
-5.45735e-08
1.30816e-07
-7.70946e-08
1.60938e-07
-1.02938e-07
1.90307e-07
-1.31863e-07
2.18535e-07
-1.63626e-07
2.45288e-07
-1.97973e-07
2.70288e-07
-2.34647e-07
2.93306e-07
-2.73384e-07
3.14156e-07
-3.13914e-07
3.32692e-07
-3.55965e-07
3.48806e-07
-3.99262e-07
3.62419e-07
-4.4353e-07
3.73484e-07
-4.88492e-07
3.81976e-07
-5.33875e-07
3.87893e-07
-5.7941e-07
3.91253e-07
-6.2483e-07
3.9209e-07
-6.69877e-07
3.90455e-07
-7.14296e-07
3.86408e-07
-7.57844e-07
3.80023e-07
-8.00283e-07
3.71383e-07
-8.41386e-07
3.60578e-07
-8.80938e-07
3.47706e-07
-9.18732e-07
3.32872e-07
-9.54574e-07
3.16184e-07
-9.88282e-07
2.97757e-07
-1.01968e-06
2.77708e-07
-1.04863e-06
2.5616e-07
-1.07496e-06
2.33236e-07
-1.09856e-06
2.09065e-07
-1.1193e-06
1.83777e-07
-1.13708e-06
1.57505e-07
-1.15182e-06
1.30384e-07
-1.16343e-06
1.02553e-07
-1.17186e-06
7.41497e-08
-1.17706e-06
4.53177e-08
-1.179e-06
1.62006e-08
-1.17766e-06
-1.30555e-08
-1.17305e-06
-4.23025e-08
-1.16517e-06
-7.1391e-08
-1.15407e-06
-1.0017e-07
-1.13978e-06
-1.28486e-07
-1.12238e-06
-1.56187e-07
-1.10193e-06
-1.83118e-07
-1.07854e-06