/*--------------------------------*- C++ -*----------------------------------*\
  =========                 |
  \\      /  F ield         | OpenFOAM: The Open Source CFD Toolbox
   \\    /   O peration     | Website:  https://openfoam.org
    \\  /    A nd           | Version:  7
     \\/     M anipulation  |
\*---------------------------------------------------------------------------*/
FoamFile
{
    version     2.0;
    format      ascii;
    class       volVectorField;
    location    "0.5";
    object      U;
}
// * * * * * * * * * * * * * * * * * * * * * * * * * * * * * * * * * * * * * //

dimensions      [0 1 -1 0 0 0 0];

internalField   nonuniform List<vector> 
6400
(
(7.18751e-06 -7.31309e-06 0)
(2.97149e-05 -1.44796e-05 0)
(5.92624e-05 -1.41896e-05 0)
(8.06e-05 -9.74056e-06 0)
(8.54569e-05 -3.42997e-06 0)
(7.05944e-05 3.54245e-06 0)
(3.48898e-05 1.05629e-05 0)
(-2.16249e-05 1.73132e-05 0)
(-9.81949e-05 2.36311e-05 0)
(-0.000193631 2.94351e-05 0)
(-0.000306486 3.46868e-05 0)
(-0.000435165 3.93715e-05 0)
(-0.000577986 4.34877e-05 0)
(-0.00073323 4.70424e-05 0)
(-0.000899169 5.00473e-05 0)
(-0.00107408 5.25175e-05 0)
(-0.00125629 5.44704e-05 0)
(-0.00144413 5.59243e-05 0)
(-0.001636 5.68989e-05 0)
(-0.00183036 5.74142e-05 0)
(-0.0020257 5.74906e-05 0)
(-0.00222058 5.71487e-05 0)
(-0.00241364 5.64091e-05 0)
(-0.00260357 5.52923e-05 0)
(-0.00278911 5.38189e-05 0)
(-0.00296909 5.20093e-05 0)
(-0.0031424 4.98836e-05 0)
(-0.00330799 4.7462e-05 0)
(-0.00346488 4.47645e-05 0)
(-0.00361215 4.1811e-05 0)
(-0.00374897 3.86215e-05 0)
(-0.00387456 3.52159e-05 0)
(-0.00398821 3.16141e-05 0)
(-0.00408928 2.78362e-05 0)
(-0.0041772 2.39024e-05 0)
(-0.00425148 1.98333e-05 0)
(-0.00431169 1.56495e-05 0)
(-0.00435748 1.13721e-05 0)
(-0.00438856 7.02257e-06 0)
(-0.00440474 2.62276e-06 0)
(-0.00440588 -1.80507e-06 0)
(-0.00439193 -6.23819e-06 0)
(-0.00436293 -1.06534e-05 0)
(-0.00431898 -1.50268e-05 0)
(-0.00426028 -1.93344e-05 0)
(-0.00418709 -2.35515e-05 0)
(-0.00409979 -2.76529e-05 0)
(-0.00399882 -3.16134e-05 0)
(-0.0038847 -3.54071e-05 0)
(-0.00375807 -3.90081e-05 0)
(-0.00361962 -4.23903e-05 0)
(-0.00347016 -4.55274e-05 0)
(-0.00331057 -4.83934e-05 0)
(-0.00314181 -5.09623e-05 0)
(-0.00296493 -5.32088e-05 0)
(-0.00278108 -5.51075e-05 0)
(-0.00259148 -5.6634e-05 0)
(-0.0023974 -5.77645e-05 0)
(-0.00220024 -5.84762e-05 0)
(-0.00200141 -5.87476e-05 0)
(-0.00180243 -5.85582e-05 0)
(-0.00160485 -5.78889e-05 0)
(-0.0014103 -5.67223e-05 0)
(-0.00122042 -5.50428e-05 0)
(-0.00103691 -5.28371e-05 0)
(-0.000861496 -5.00941e-05 0)
(-0.000695902 -4.68056e-05 0)
(-0.000541861 -4.29669e-05 0)
(-0.000401081 -3.85775e-05 0)
(-0.000275225 -3.36434e-05 0)
(-0.000165879 -2.81796e-05 0)
(-7.45031e-05 -2.22159e-05 0)
(-2.36463e-06 -1.58063e-05 0)
(4.95664e-05 -9.04827e-06 0)
(8.07953e-05 -2.12106e-06 0)
(9.15867e-05 4.6414e-06 0)
(8.33874e-05 1.06139e-05 0)
(5.97644e-05 1.46e-05 0)
(2.92307e-05 1.43546e-05 0)
(6.87151e-06 6.86995e-06 0)
(1.44205e-05 -2.9902e-05 0)
(5.14908e-05 -5.15553e-05 0)
(8.97799e-05 -4.41035e-05 0)
(0.000103528 -1.91132e-05 0)
(7.70178e-05 1.5305e-05 0)
(2.39644e-06 5.41232e-05 0)
(-0.000124037 9.42628e-05 0)
(-0.000303198 0.000133835 0)
(-0.000534043 0.00017168 0)
(-0.000814206 0.000207083 0)
(-0.00114045 0.000239604 0)
(-0.00150895 0.000268982 0)
(-0.00191554 0.000295073 0)
(-0.00235581 0.000317811 0)
(-0.00282524 0.000337185 0)
(-0.00331927 0.000353223 0)
(-0.00383335 0.000365982 0)
(-0.00436301 0.000375539 0)
(-0.00490384 0.000381986 0)
(-0.00545157 0.000385426 0)
(-0.00600204 0.000385971 0)
(-0.00655125 0.000383738 0)
(-0.00709535 0.000378851 0)
(-0.00763068 0.000371434 0)
(-0.00815371 0.000361616 0)
(-0.00866112 0.000349528 0)
(-0.00914976 0.000335299 0)
(-0.00961667 0.000319062 0)
(-0.0100591 0.00030095 0)
(-0.0104744 0.000281098 0)
(-0.0108602 0.000259639 0)
(-0.0112143 0.000236709 0)
(-0.0115347 0.000212446 0)
(-0.0118196 0.000186987 0)
(-0.0120673 0.000160471 0)
(-0.0122765 0.00013304 0)
(-0.012446 0.000104837 0)
(-0.0125747 7.60077e-05 0)
(-0.0126619 4.67002e-05 0)
(-0.012707 1.70648e-05 0)
(-0.0127097 -1.27452e-05 0)
(-0.0126698 -4.25738e-05 0)
(-0.0125874 -7.22622e-05 0)
(-0.0124629 -0.000101649 0)
(-0.0122968 -0.000130569 0)
(-0.01209 -0.000158856 0)
(-0.0118434 -0.000186341 0)
(-0.0115583 -0.000212853 0)
(-0.0112363 -0.000238221 0)
(-0.0108791 -0.000262272 0)
(-0.0104888 -0.000284832 0)
(-0.0100676 -0.00030573 0)
(-0.00961801 -0.000324794 0)
(-0.00914275 -0.000341856 0)
(-0.00864479 -0.000356751 0)
(-0.00812734 -0.000369318 0)
(-0.00759381 -0.000379402 0)
(-0.00704782 -0.000386853 0)
(-0.0064932 -0.000391533 0)
(-0.00593394 -0.000393309 0)
(-0.00537423 -0.000392062 0)
(-0.00481837 -0.000387685 0)
(-0.00427082 -0.000380086 0)
(-0.00373611 -0.000369188 0)
(-0.00321886 -0.000354938 0)
(-0.00272372 -0.000337303 0)
(-0.00225534 -0.000316281 0)
(-0.00181828 -0.000291905 0)
(-0.00141701 -0.000264252 0)
(-0.00105578 -0.00023346 0)
(-0.000738525 -0.00019975 0)
(-0.000468701 -0.000163463 0)
(-0.000249107 -0.000125117 0)
(-8.15699e-05 -8.55036e-05 0)
(3.34817e-05 -4.58508e-05 0)
(9.76372e-05 -8.09506e-06 0)
(0.000115281 2.46773e-05 0)
(9.48837e-05 4.75147e-05 0)
(5.26219e-05 5.25768e-05 0)
(1.43504e-05 2.92082e-05 0)
(1.42778e-05 -5.94633e-05 0)
(4.45419e-05 -8.99439e-05 0)
(6.12513e-05 -6.04957e-05 0)
(3.5592e-05 6.70841e-06 0)
(-5.08094e-05 9.62497e-05 0)
(-0.000208173 0.000197471 0)
(-0.000441834 0.000303141 0)
(-0.000753498 0.00040842 0)
(-0.00114213 0.000510086 0)
(-0.00160473 0.000605993 0)
(-0.00213687 0.000694728 0)
(-0.00273317 0.000775373 0)
(-0.00338756 0.000847359 0)
(-0.00409354 0.000910365 0)
(-0.00484434 0.000964245 0)
(-0.00563306 0.00100899 0)
(-0.00645275 0.00104467 0)
(-0.0072965 0.00107144 0)
(-0.00815751 0.00108952 0)
(-0.00902911 0.00109916 0)
(-0.00990482 0.00110063 0)
(-0.0107783 0.00109424 0)
(-0.0116436 0.00108032 0)
(-0.0124949 0.00105921 0)
(-0.0133265 0.00103127 0)
(-0.0141333 0.000996836 0)
(-0.0149103 0.000956292 0)
(-0.0156526 0.000910005 0)
(-0.016356 0.000858352 0)
(-0.0170162 0.000801713 0)
(-0.0176295 0.000740473 0)
(-0.0181923 0.00067502 0)
(-0.0187015 0.000605746 0)
(-0.0191542 0.000533049 0)
(-0.0195478 0.000457331 0)
(-0.01988 0.000379 0)
(-0.020149 0.000298468 0)
(-0.0203532 0.000216155 0)
(-0.0204913 0.000132488 0)
(-0.0205624 4.79003e-05 0)
(-0.0205661 -3.71661e-05 0)
(-0.020502 -0.000122263 0)
(-0.0203705 -0.000206934 0)
(-0.020172 -0.000290715 0)
(-0.0199074 -0.000373138 0)
(-0.0195781 -0.000453724 0)
(-0.0191856 -0.000531992 0)
(-0.0187322 -0.000607457 0)
(-0.0182202 -0.00067963 0)
(-0.0176523 -0.000748022 0)
(-0.017032 -0.000812143 0)
(-0.0163626 -0.000871508 0)
(-0.0156483 -0.000925637 0)
(-0.0148933 -0.000974057 0)
(-0.0141024 -0.00101631 0)
(-0.0132806 -0.00105194 0)
(-0.0124333 -0.00108053 0)
(-0.0115662 -0.00110166 0)
(-0.0106853 -0.00111496 0)
(-0.00979693 -0.00112008 0)
(-0.00890761 -0.00111668 0)
(-0.00802408 -0.00110451 0)
(-0.00715324 -0.00108333 0)
(-0.00630216 -0.00105297 0)
(-0.00547795 -0.00101332 0)
(-0.00468776 -0.000964337 0)
(-0.00393865 -0.000906096 0)
(-0.00323757 -0.000838767 0)
(-0.00259117 -0.000762674 0)
(-0.00200574 -0.000678326 0)
(-0.00148697 -0.00058649 0)
(-0.00103974 -0.00048828 0)
(-0.000667832 -0.000385302 0)
(-0.000373491 -0.000279879 0)
(-0.000156893 -0.000175375 0)
(-1.54125e-05 -7.67094e-05 0)
(5.71987e-05 8.91925e-06 0)
(7.19678e-05 7.10816e-05 0)
(4.79877e-05 9.49469e-05 0)
(1.468e-05 5.98042e-05 0)
(1.00511e-05 -8.12187e-05 0)
(2.03966e-05 -0.000104426 0)
(-4.29612e-06 -3.51883e-05 0)
(-9.08062e-05 9.36591e-05 0)
(-0.000257284 0.000259348 0)
(-0.000514678 0.000445327 0)
(-0.000868899 0.000639732 0)
(-0.0013219 0.000834203 0)
(-0.00187253 0.00102289 0)
(-0.00251727 0.0012017 0)
(-0.0032508 0.00136784 0)
(-0.00406655 0.00151938 0)
(-0.00495697 0.00165508 0)
(-0.00591389 0.00177416 0)
(-0.00692871 0.00187621 0)
(-0.00799257 0.00196109 0)
(-0.00909653 0.00202885 0)
(-0.0102316 0.0020797 0)
(-0.0113889 0.00211397 0)
(-0.0125597 0.00213209 0)
(-0.0137354 0.00213455 0)
(-0.0149077 0.0021219 0)
(-0.0160687 0.00209474 0)
(-0.0172106 0.0020537 0)
(-0.018326 0.00199944 0)
(-0.0194079 0.00193264 0)
(-0.0204497 0.00185399 0)
(-0.021445 0.0017642 0)
(-0.0223879 0.00166401 0)
(-0.0232729 0.00155414 0)
(-0.0240949 0.00143533 0)
(-0.0248492 0.00130835 0)
(-0.0255315 0.00117395 0)
(-0.026138 0.0010329 0)
(-0.0266651 0.000886001 0)
(-0.02711 0.000734033 0)
(-0.0274701 0.000577807 0)
(-0.0277431 0.00041814 0)
(-0.0279276 0.000255865 0)
(-0.0280224 9.18283e-05 0)
(-0.0280266 -7.31114e-05 0)
(-0.0279401 -0.00023808 0)
(-0.0277632 -0.000402191 0)
(-0.0274966 -0.000564543 0)
(-0.0271414 -0.000724224 0)
(-0.0266996 -0.000880311 0)
(-0.0261733 -0.00103187 0)
(-0.0255653 -0.00117797 0)
(-0.0248789 -0.00131765 0)
(-0.0241179 -0.00144999 0)
(-0.0232865 -0.00157403 0)
(-0.0223896 -0.00168885 0)
(-0.0214325 -0.00179353 0)
(-0.0204211 -0.00188716 0)
(-0.0193614 -0.00196887 0)
(-0.0182604 -0.0020378 0)
(-0.0171251 -0.00209316 0)
(-0.0159632 -0.00213416 0)
(-0.0147825 -0.0021601 0)
(-0.0135915 -0.00217033 0)
(-0.0123987 -0.00216426 0)
(-0.0112129 -0.00214141 0)
(-0.0100434 -0.00210138 0)
(-0.00889918 -0.0020439 0)
(-0.00778966 -0.0019688 0)
(-0.00672405 -0.00187611 0)
(-0.00571149 -0.00176604 0)
(-0.00476086 -0.00163902 0)
(-0.00388063 -0.00149579 0)
(-0.00307869 -0.00133746 0)
(-0.00236213 -0.00116564 0)
(-0.00173692 -0.00098258 0)
(-0.00120758 -0.000791436 0)
(-0.000776722 -0.000596581 0)
(-0.00044447 -0.000404094 0)
(-0.000207768 -0.000222449 0)
(-5.96085e-05 -6.34356e-05 0)
(1.19532e-05 5.67626e-05 0)
(2.61188e-05 0.000116214 0)
(1.09066e-05 8.3856e-05 0)
(4.01829e-06 -8.70621e-05 0)
(-1.30128e-05 -7.95547e-05 0)
(-9.19834e-05 4.99505e-05 0)
(-0.000253982 0.000259698 0)
(-0.000514856 0.000520288 0)
(-0.000885055 0.000809658 0)
(-0.00137016 0.00111141 0)
(-0.00197178 0.00141354 0)
(-0.00268834 0.00170735 0)
(-0.00351573 0.00198655 0)
(-0.00444785 0.00224664 0)
(-0.00547709 0.00248448 0)
(-0.0065947 0.00269791 0)
(-0.00779111 0.00288555 0)
(-0.0090562 0.00304658 0)
(-0.0103795 0.00318061 0)
(-0.0117503 0.00328762 0)
(-0.0131579 0.00336783 0)
(-0.0145915 0.00342168 0)
(-0.0160407 0.00344977 0)
(-0.0174951 0.00345282 0)
(-0.0189447 0.00343167 0)
(-0.0203795 0.00338724 0)
(-0.0217904 0.0033205 0)
(-0.0231682 0.00323247 0)
(-0.0245043 0.00312424 0)
(-0.0257905 0.0029969 0)
(-0.0270192 0.0028516 0)
(-0.028183 0.00268948 0)
(-0.0292752 0.00251173 0)
(-0.0302896 0.00231955 0)
(-0.0312202 0.00211415 0)
(-0.0320619 0.00189677 0)
(-0.0328099 0.00166865 0)
(-0.0334599 0.00143108 0)
(-0.0340084 0.00118533 0)
(-0.0344521 0.00093271 0)
(-0.0347884 0.000674557 0)
(-0.0350155 0.000412216 0)
(-0.0351317 0.000147059 0)
(-0.0351363 -0.000119522 0)
(-0.035029 -0.00038611 0)
(-0.0348102 -0.000651272 0)
(-0.0344807 -0.000913549 0)
(-0.0340421 -0.00117147 0)
(-0.0334966 -0.00142354 0)
(-0.032847 -0.00166826 0)
(-0.0320966 -0.00190413 0)
(-0.0312497 -0.00212961 0)
(-0.0303107 -0.0023432 0)
(-0.029285 -0.0025434 0)
(-0.0281786 -0.00272871 0)
(-0.0269979 -0.00289765 0)
(-0.02575 -0.00304881 0)
(-0.0244427 -0.00318077 0)
(-0.0230841 -0.00329219 0)
(-0.021683 -0.0033818 0)
(-0.0202486 -0.00344838 0)
(-0.0187907 -0.00349084 0)
(-0.0173193 -0.00350815 0)
(-0.0158449 -0.00349944 0)
(-0.0143782 -0.00346397 0)
(-0.0129302 -0.00340117 0)
(-0.011512 -0.00331065 0)
(-0.0101347 -0.00319228 0)
(-0.00880942 -0.00304615 0)
(-0.007547 -0.00287272 0)
(-0.00635797 -0.00267281 0)
(-0.00525233 -0.00244772 0)
(-0.00423931 -0.00219938 0)
(-0.00332716 -0.00193046 0)
(-0.00252279 -0.00164463 0)
(-0.00183142 -0.00134688 0)
(-0.00125615 -0.00104392 0)
(-0.00079737 -0.000744788 0)
(-0.000452221 -0.000461643 0)
(-0.000213854 -0.000210793 0)
(-7.06142e-05 -1.38504e-05 0)
(-5.23265e-06 0.000100756 0)
(5.26225e-06 9.3149e-05 0)
(-2.66692e-06 -7.37777e-05 0)
(-5.09339e-05 -7.38785e-06 0)
(-0.000191898 0.00020546 0)
(-0.000438798 0.000516377 0)
(-0.000803747 0.000890419 0)
(-0.00129575 0.00130066 0)
(-0.0019193 0.00172651 0)
(-0.00267513 0.00215248 0)
(-0.00356088 0.00256696 0)
(-0.00457167 0.00296135 0)
(-0.00570057 0.00332933 0)
(-0.00693898 0.00366636 0)
(-0.00827708 0.00396924 0)
(-0.0097041 0.00423581 0)
(-0.0112086 0.00446473 0)
(-0.0127787 0.00465531 0)
(-0.0144022 0.00480736 0)
(-0.0160668 0.00492107 0)
(-0.0177604 0.00499697 0)
(-0.0194707 0.00503582 0)
(-0.0211859 0.00503859 0)
(-0.0228943 0.00500642 0)
(-0.0245846 0.00494057 0)
(-0.0262459 0.00484242 0)
(-0.0278677 0.00471341 0)
(-0.0294399 0.00455508 0)
(-0.0309532 0.00436899 0)
(-0.0323983 0.00415679 0)
(-0.033767 0.00392014 0)
(-0.0350512 0.00366075 0)
(-0.0362436 0.00338036 0)
(-0.0373374 0.00308073 0)
(-0.0383266 0.00276367 0)
(-0.0392055 0.00243098 0)
(-0.0399691 0.00208454 0)
(-0.0406133 0.00172621 0)
(-0.0411343 0.0013579 0)
(-0.0415291 0.000981567 0)
(-0.0417953 0.000599168 0)
(-0.0419314 0.000212708 0)
(-0.0419363 -0.000175781 0)
(-0.0418098 -0.000564236 0)
(-0.0415521 -0.000950563 0)
(-0.0411645 -0.00133264 0)
(-0.0406488 -0.00170833 0)
(-0.0400074 -0.00207546 0)
(-0.0392438 -0.00243186 0)
(-0.0383619 -0.00277532 0)
(-0.0373665 -0.00310365 0)
(-0.036263 -0.00341467 0)
(-0.0350575 -0.00370619 0)
(-0.0337571 -0.00397607 0)
(-0.0323694 -0.00422218 0)
(-0.0309025 -0.00444246 0)
(-0.0293654 -0.00463491 0)
(-0.0277678 -0.00479761 0)
(-0.0261197 -0.00492873 0)
(-0.0244319 -0.00502656 0)
(-0.0227157 -0.00508954 0)
(-0.0209827 -0.00511625 0)
(-0.0192449 -0.00510548 0)
(-0.0175149 -0.00505623 0)
(-0.0158051 -0.00496773 0)
(-0.0141284 -0.00483953 0)
(-0.0124975 -0.00467152 0)
(-0.010925 -0.00446396 0)
(-0.00942341 -0.00421762 0)
(-0.00800455 -0.00393383 0)
(-0.00667978 -0.00361458 0)
(-0.00545954 -0.00326275 0)
(-0.0043531 -0.00288227 0)
(-0.00336829 -0.00247841 0)
(-0.00251113 -0.00205815 0)
(-0.00178536 -0.00163068 0)
(-0.00119204 -0.00120803 0)
(-0.00072907 -0.000805952 0)
(-0.000390497 -0.000444963 0)
(-0.000165888 -0.000151525 0)
(-4.13315e-05 4.0418e-05 0)
(-1.09601e-06 8.43283e-05 0)
(-9.44611e-06 -4.01188e-05 0)
(-9.06044e-05 0.000116262 0)
(-0.000297647 0.000437598 0)
(-0.000634953 0.000871008 0)
(-0.00111003 0.00137721 0)
(-0.00172976 0.00192522 0)
(-0.00249694 0.00249075 0)
(-0.00341093 0.00305507 0)
(-0.00446827 0.00360385 0)
(-0.00566308 0.00412617 0)
(-0.00698744 0.00461386 0)
(-0.0084318 0.00506089 0)
(-0.00998527 0.00546291 0)
(-0.011636 0.00581692 0)
(-0.0133713 0.00612098 0)
(-0.015178 0.006374 0)
(-0.0170428 0.00657558 0)
(-0.0189519 0.00672584 0)
(-0.0208918 0.00682535 0)
(-0.0228489 0.00687506 0)
(-0.0248099 0.00687616 0)
(-0.0267618 0.00683013 0)
(-0.0286919 0.00673858 0)
(-0.0305879 0.00660334 0)
(-0.0324381 0.0064263 0)
(-0.0342312 0.00620951 0)
(-0.0359564 0.00595509 0)
(-0.0376036 0.00566521 0)
(-0.0391632 0.00534213 0)
(-0.0406263 0.00498816 0)
(-0.0419845 0.00460565 0)
(-0.0432302 0.00419699 0)
(-0.0443566 0.00376464 0)
(-0.0453571 0.00331106 0)
(-0.0462264 0.00283879 0)
(-0.0469595 0.00235038 0)
(-0.0475524 0.00184844 0)
(-0.0480015 0.0013356 0)
(-0.0483043 0.000814566 0)
(-0.0484589 0.00028805 0)
(-0.0484641 -0.000241176 0)
(-0.0483197 -0.000770302 0)
(-0.0480262 -0.00129648 0)
(-0.0475847 -0.00181683 0)
(-0.0469974 -0.00232844 0)
(-0.0462672 -0.00282837 0)
(-0.0453978 -0.00331366 0)
(-0.0443937 -0.00378133 0)
(-0.0432604 -0.00422842 0)
(-0.0420039 -0.00465197 0)
(-0.0406314 -0.00504902 0)
(-0.0391505 -0.00541669 0)
(-0.0375699 -0.00575212 0)
(-0.0358989 -0.00605253 0)
(-0.0341475 -0.00631524 0)
(-0.0323266 -0.00653768 0)
(-0.0304475 -0.00671741 0)
(-0.0285223 -0.00685216 0)
(-0.0265637 -0.00693986 0)
(-0.0245846 -0.00697867 0)
(-0.0225987 -0.006967 0)
(-0.0206197 -0.00690356 0)
(-0.0186618 -0.00678743 0)
(-0.0167391 -0.00661809 0)
(-0.0148659 -0.00639547 0)
(-0.0130561 -0.00612008 0)
(-0.0113236 -0.00579306 0)
(-0.00968143 -0.0054163 0)
(-0.00814224 -0.00499263 0)
(-0.00671753 -0.00452598 0)
(-0.00541763 -0.00402163 0)
(-0.00425131 -0.00348654 0)
(-0.00322548 -0.00292977 0)
(-0.00234483 -0.00236296 0)
(-0.00161141 -0.00180107 0)
(-0.00102435 -0.00126316 0)
(-0.000579202 -0.00077354 0)
(-0.000267439 -0.000362782 0)
(-7.93797e-05 -6.92146e-05 0)
(-7.59347e-06 5.60215e-05 0)
(-1.60573e-05 1.41741e-05 0)
(-0.00013046 0.000293223 0)
(-0.000405253 0.000749635 0)
(-0.000835688 0.00132777 0)
(-0.00142424 0.00198518 0)
(-0.00217517 0.00268762 0)
(-0.00308918 0.0034077 0)
(-0.00416384 0.00412383 0)
(-0.00539428 0.00481915 0)
(-0.00677339 0.00548058 0)
(-0.00829213 0.00609812 0)
(-0.00993989 0.00666426 0)
(-0.0117047 0.00717348 0)
(-0.0135736 0.00762187 0)
(-0.0155329 0.00800685 0)
(-0.0175682 0.00832688 0)
(-0.0196649 0.0085813 0)
(-0.0218083 0.00877014 0)
(-0.0239833 0.00889401 0)
(-0.0261753 0.00895399 0)
(-0.0283698 0.00895155 0)
(-0.0305523 0.00888846 0)
(-0.0327091 0.00876676 0)
(-0.0348267 0.0085887 0)
(-0.0368921 0.00835673 0)
(-0.0388929 0.0080734 0)
(-0.0408174 0.00774143 0)
(-0.0426542 0.00736361 0)
(-0.0443929 0.00694284 0)
(-0.0460236 0.00648208 0)
(-0.0475372 0.00598437 0)
(-0.0489251 0.00545282 0)
(-0.0501798 0.00489059 0)
(-0.0512943 0.00430087 0)
(-0.0522624 0.00368696 0)
(-0.0530787 0.00305217 0)
(-0.0537387 0.00239987 0)
(-0.0542387 0.0017335 0)
(-0.0545758 0.00105654 0)
(-0.0547478 0.00037254 0)
(-0.0547536 -0.000314923 0)
(-0.0545928 -0.0010022 0)
(-0.0542659 -0.00168561 0)
(-0.0537744 -0.00236141 0)
(-0.0531205 -0.00302584 0)
(-0.0523076 -0.00367508 0)
(-0.0513396 -0.00430532 0)
(-0.0502217 -0.00491273 0)
(-0.0489596 -0.00549345 0)
(-0.0475604 -0.00604369 0)
(-0.0460316 -0.00655964 0)
(-0.0443819 -0.00703758 0)
(-0.0426206 -0.00747385 0)
(-0.0407582 -0.00786489 0)
(-0.0388056 -0.00820725 0)
(-0.0367747 -0.00849766 0)
(-0.0346781 -0.00873301 0)
(-0.0325289 -0.00891043 0)
(-0.0303411 -0.0090273 0)
(-0.0281289 -0.00908129 0)
(-0.0259072 -0.00907044 0)
(-0.0236911 -0.00899318 0)
(-0.021496 -0.0088484 0)
(-0.0193374 -0.00863553 0)
(-0.0172308 -0.0083546 0)
(-0.0151915 -0.00800636 0)
(-0.0132344 -0.00759238 0)
(-0.011374 -0.00711521 0)
(-0.00962397 -0.00657854 0)
(-0.00799686 -0.00598743 0)
(-0.00650409 -0.00534855 0)
(-0.00515549 -0.0046706 0)
(-0.00395904 -0.00396465 0)
(-0.00292057 -0.00324475 0)
(-0.00204348 -0.00252854 0)
(-0.0013285 -0.00183811 0)
(-0.000773137 -0.001201 0)
(-0.000371225 -0.000651148 0)
(-0.000117769 -0.000230174 0)
(-1.39534e-05 7.87156e-06 0)
(-2.23908e-05 8.8805e-05 0)
(-0.000169653 0.000523791 0)
(-0.000512329 0.00114274 0)
(-0.00103671 0.00188856 0)
(-0.00174008 0.00271663 0)
(-0.00262386 0.00359022 0)
(-0.0036863 0.00447942 0)
(-0.00492292 0.00536019 0)
(-0.00632715 0.00621343 0)
(-0.00789045 0.00702408 0)
(-0.00960252 0.00778043 0)
(-0.0114515 0.00847353 0)
(-0.0134245 0.00909671 0)
(-0.0155072 0.00964516 0)
(-0.017685 0.0101156 0)
(-0.0199423 0.0105061 0)
(-0.0222636 0.0108157 0)
(-0.0246327 0.0110443 0)
(-0.0270339 0.0111925 0)
(-0.029451 0.0112616 0)
(-0.0318686 0.0112532 0)
(-0.0342712 0.0111695 0)
(-0.0366437 0.011013 0)
(-0.0389718 0.0107864 0)
(-0.0412413 0.0104926 0)
(-0.0434389 0.0101348 0)
(-0.0455517 0.00971642 0)
(-0.0475678 0.00924081 0)
(-0.0494755 0.00871159 0)
(-0.0512643 0.00813246 0)
(-0.0529243 0.00750719 0)
(-0.0544462 0.00683966 0)
(-0.0558217 0.0061338 0)
(-0.0570434 0.00539364 0)
(-0.0581045 0.00462325 0)
(-0.0589992 0.0038268 0)
(-0.0597226 0.0030085 0)
(-0.0602706 0.00217266 0)
(-0.0606401 0.00132364 0)
(-0.0608288 0.00046585 0)
(-0.0608354 -0.000396209 0)
(-0.0606595 -0.00125799 0)
(-0.0603018 -0.00211487 0)
(-0.0597637 -0.0029622 0)
(-0.0590478 -0.00379527 0)
(-0.0581575 -0.00460932 0)
(-0.0570973 -0.00539961 0)
(-0.0558726 -0.00616133 0)
(-0.0544899 -0.00688973 0)
(-0.0529566 -0.00758005 0)
(-0.051281 -0.00822758 0)
(-0.0494724 -0.00882769 0)
(-0.047541 -0.00937584 0)
(-0.0454979 -0.00986762 0)
(-0.0433552 -0.0102988 0)
(-0.0411256 -0.0106653 0)
(-0.0388226 -0.0109633 0)
(-0.0364607 -0.0111892 0)
(-0.0340546 -0.01134 0)
(-0.0316199 -0.0114126 0)
(-0.0291725 -0.0114049 0)
(-0.0267288 -0.0113149 0)
(-0.0243053 -0.0111412 0)
(-0.0219188 -0.0108834 0)
(-0.0195859 -0.0105415 0)
(-0.0173231 -0.0101165 0)
(-0.0151465 -0.00961057 0)
(-0.0130717 -0.00902682 0)
(-0.0111135 -0.00836987 0)
(-0.00928552 -0.00764592 0)
(-0.0076004 -0.00686305 0)
(-0.00606911 -0.00603163 0)
(-0.00470085 -0.0051647 0)
(-0.00350284 -0.00427851 0)
(-0.00248007 -0.00339318 0)
(-0.00163518 -0.00253344 0)
(-0.000967935 -0.00172952 0)
(-0.000474799 -0.00101803 0)
(-0.000155615 -0.000442926 0)
(-2.00551e-05 -5.98965e-05 0)
(-2.84128e-05 0.000183199 0)
(-0.000207757 0.000807341 0)
(-0.000617512 0.0016167 0)
(-0.00123538 0.00255367 0)
(-0.00205356 0.00357226 0)
(-0.00307047 0.00463392 0)
(-0.00428173 0.00570674 0)
(-0.00568061 0.00676468 0)
(-0.00725864 0.0077867 0)
(-0.00900565 0.00875598 0)
(-0.0109099 0.00965926 0)
(-0.0129583 0.0104862 0)
(-0.0151367 0.0112292 0)
(-0.0174297 0.0118824 0)
(-0.0198215 0.012442 0)
(-0.0222957 0.0129055 0)
(-0.0248354 0.0132718 0)
(-0.0274236 0.0135405 0)
(-0.0300434 0.0137124 0)
(-0.0326777 0.0137888 0)
(-0.03531 0.0137717 0)
(-0.0379237 0.0136636 0)
(-0.0405029 0.0134674 0)
(-0.0430322 0.0131863 0)
(-0.0454965 0.0128239 0)
(-0.0478817 0.0123839 0)
(-0.0501739 0.0118703 0)
(-0.0523602 0.0112874 0)
(-0.0544286 0.0106394 0)
(-0.0563674 0.00993084 0)
(-0.0581662 0.00916623 0)
(-0.0598151 0.0083503 0)
(-0.0613051 0.00748781 0)
(-0.0626284 0.00658366 0)
(-0.0637777 0.00564281 0)
(-0.0647468 0.00467031 0)
(-0.0655303 0.00367131 0)
(-0.0661241 0.00265101 0)
(-0.0665246 0.00161473 0)
(-0.0667294 0.00056785 0)
(-0.0667373 -0.000484178 0)
(-0.0665477 -0.00153582 0)
(-0.0661613 -0.00258146 0)
(-0.0655798 -0.00361546 0)
(-0.0648057 -0.00463208 0)
(-0.0638429 -0.00562559 0)
(-0.062696 -0.00659018 0)
(-0.061371 -0.00752007 0)
(-0.0598746 -0.00840948 0)
(-0.0582148 -0.00925265 0)
(-0.0564005 -0.0100439 0)
(-0.0544415 -0.0107776 0)
(-0.0523489 -0.0114483 0)
(-0.0501344 -0.0120507 0)
(-0.0478108 -0.0125797 0)
(-0.0453919 -0.0130303 0)
(-0.042892 -0.013398 0)
(-0.0403264 -0.0136785 0)
(-0.0377111 -0.0138681 0)
(-0.0350625 -0.0139634 0)
(-0.0323977 -0.0139616 0)
(-0.029734 -0.0138604 0)
(-0.0270892 -0.0136584 0)
(-0.024481 -0.013355 0)
(-0.0219273 -0.0129504 0)
(-0.0194457 -0.0124458 0)
(-0.0170534 -0.0118438 0)
(-0.014767 -0.0111483 0)
(-0.0126027 -0.0103648 0)
(-0.0105751 -0.00950052 0)
(-0.00869816 -0.00856499 0)
(-0.00698407 -0.00757017 0)
(-0.00544347 -0.00653091 0)
(-0.00408512 -0.00546551 0)
(-0.00291583 -0.00439626 0)
(-0.00194037 -0.00335016 0)
(-0.00116094 -0.00235968 0)
(-0.000576762 -0.00146344 0)
(-0.000192468 -0.000706996 0)
(-2.58585e-05 -0.000146761 0)
(-3.41271e-05 0.000296666 0)
(-0.000244592 0.00114275 0)
(-0.000720094 0.00217047 0)
(-0.00143024 0.00332236 0)
(-0.00236229 0.00455163 0)
(-0.00351165 0.0058185 0)
(-0.00487126 0.00708954 0)
(-0.00643195 0.00833708 0)
(-0.00818322 0.00953847 0)
(-0.0101131 0.0106754 0)
(-0.0122084 0.0117331 0)
(-0.0144545 0.0127003 0)
(-0.0168359 0.0135681 0)
(-0.0193363 0.0143301 0)
(-0.0219386 0.0149817 0)
(-0.0246254 0.0155201 0)
(-0.0273786 0.0159437 0)
(-0.0301804 0.0162523 0)
(-0.0330128 0.0164467 0)
(-0.0358578 0.0165282 0)
(-0.0386977 0.0164992 0)
(-0.0415154 0.0163626 0)
(-0.0442938 0.0161216 0)
(-0.0470166 0.01578 0)
(-0.049668 0.0153421 0)
(-0.052233 0.0148122 0)
(-0.0546969 0.014195 0)
(-0.0570463 0.0134955 0)
(-0.059268 0.0127188 0)
(-0.0613501 0.0118701 0)
(-0.0632814 0.0109549 0)
(-0.0650514 0.00997866 0)
(-0.0666508 0.00894718 0)
(-0.0680709 0.00786619 0)
(-0.0693044 0.00674162 0)
(-0.0703445 0.00557946 0)
(-0.0711856 0.00438582 0)
(-0.0718232 0.00316691 0)
(-0.0722537 0.00192903 0)
(-0.0724745 0.000678592 0)
(-0.0724841 -0.000577929 0)
(-0.0722822 -0.00183395 0)
(-0.0718692 -0.00308283 0)
(-0.0712471 -0.00431782 0)
(-0.0704185 -0.00553215 0)
(-0.0693874 -0.006719 0)
(-0.0681589 -0.00787148 0)
(-0.066739 -0.00898275 0)
(-0.065135 -0.0100459 0)
(-0.0633552 -0.0110542 0)
(-0.0614091 -0.0120009 0)
(-0.0593071 -0.0128793 0)
(-0.0570608 -0.013683 0)
(-0.0546826 -0.0144057 0)
(-0.052186 -0.0150413 0)
(-0.0495856 -0.0155841 0)
(-0.0468966 -0.0160287 0)
(-0.044135 -0.0163702 0)
(-0.0413178 -0.0166039 0)
(-0.0384623 -0.0167261 0)
(-0.0355866 -0.0167334 0)
(-0.032709 -0.0166234 0)
(-0.0298483 -0.0163942 0)
(-0.0270234 -0.0160453 0)
(-0.0242532 -0.0155769 0)
(-0.0215562 -0.0149905 0)
(-0.018951 -0.0142893 0)
(-0.0164553 -0.0134776 0)
(-0.0140863 -0.0125618 0)
(-0.0118602 -0.0115504 0)
(-0.00979188 -0.0104541 0)
(-0.00789514 -0.00928633 0)
(-0.00618212 -0.00806362 0)
(-0.00466332 -0.00680612 0)
(-0.0033475 -0.00553802 0)
(-0.0022417 -0.00428823 0)
(-0.00135066 -0.00309103 0)
(-0.000676396 -0.00198656 0)
(-0.00022814 -0.0010214 0)
(-3.13638e-05 -0.000252076 0)
(-3.95549e-05 0.000428489 0)
(-0.000280126 0.00152865 0)
(-0.00081979 0.00280255 0)
(-0.00162055 0.00419323 0)
(-0.00266497 0.00565358 0)
(-0.00394552 0.00714302 0)
(-0.00545238 0.00862701 0)
(-0.00717392 0.0100766 0)
(-0.00909746 0.0114679 0)
(-0.0112092 0.0127811 0)
(-0.0134941 0.0140006 0)
(-0.0159363 0.0151138 0)
(-0.0185189 0.0161111 0)
(-0.0212242 0.0169852 0)
(-0.0240341 0.0177311 0)
(-0.0269299 0.0183456 0)
(-0.0298927 0.0188269 0)
(-0.0329037 0.0191747 0)
(-0.0359437 0.0193897 0)
(-0.038994 0.0194738 0)
(-0.0420361 0.0194293 0)
(-0.0450516 0.0192597 0)
(-0.048023 0.0189687 0)
(-0.0509331 0.0185606 0)
(-0.0537652 0.0180403 0)
(-0.0565036 0.0174128 0)
(-0.059133 0.0166837 0)
(-0.0616391 0.0158585 0)
(-0.0640084 0.0149433 0)
(-0.0662281 0.0139442 0)
(-0.0682866 0.0128675 0)
(-0.0701729 0.0117197 0)
(-0.0718771 0.0105074 0)
(-0.0733903 0.00923729 0)
(-0.0747046 0.00791636 0)
(-0.075813 0.00655158 0)
(-0.0767097 0.00515008 0)
(-0.0773898 0.00371911 0)
(-0.0778495 0.00226603 0)
(-0.0780862 0.000798295 0)
(-0.0780983 -0.00067651 0)
(-0.0778852 -0.00215072 0)
(-0.0774477 -0.00361657 0)
(-0.0767876 -0.00506622 0)
(-0.0759077 -0.00649176 0)
(-0.0748122 -0.00788522 0)
(-0.0735063 -0.00923862 0)
(-0.0719965 -0.010544 0)
(-0.0702902 -0.0117932 0)
(-0.0683962 -0.0129785 0)
(-0.0663243 -0.014092 0)
(-0.0640855 -0.015126 0)
(-0.0616919 -0.0160729 0)
(-0.0591566 -0.0169255 0)
(-0.0564936 -0.0176766 0)
(-0.0537183 -0.0183198 0)
(-0.0508465 -0.0188486 0)
(-0.0478951 -0.0192574 0)
(-0.0448819 -0.0195409 0)
(-0.0418251 -0.0196947 0)
(-0.0387437 -0.0197149 0)
(-0.035657 -0.0195987 0)
(-0.0325848 -0.0193441 0)
(-0.0295468 -0.0189503 0)
(-0.0265632 -0.0184176 0)
(-0.0236536 -0.017748 0)
(-0.0208375 -0.0169447 0)
(-0.0181341 -0.016013 0)
(-0.0155616 -0.01496 0)
(-0.0131376 -0.013795 0)
(-0.0108784 -0.01253 0)
(-0.00879929 -0.0111799 0)
(-0.0069141 -0.0097627 0)
(-0.00523516 -0.00830011 0)
(-0.00377332 -0.006818 0)
(-0.00253797 -0.0053469 0)
(-0.00153643 -0.00392252 0)
(-0.000773427 -0.00258612 0)
(-0.000262599 -0.0013849 0)
(-3.65918e-05 -0.000375165 0)
(-4.47253e-05 0.000577975 0)
(-0.00031441 0.0019636 0)
(-0.000916577 0.0035112 0)
(-0.0018061 0.00516454 0)
(-0.0029611 0.00687651 0)
(-0.0043712 0.00860607 0)
(-0.00602386 0.0103179 0)
(-0.00790494 0.0119821 0)
(-0.00999952 0.0135737 0)
(-0.0122918 0.0150721 0)
(-0.0147651 0.0164603 0)
(-0.0174019 0.0177251 0)
(-0.0201838 0.018856 0)
(-0.023092 0.0198453 0)
(-0.026107 0.0206874 0)
(-0.029209 0.0213788 0)
(-0.0323783 0.0219175 0)
(-0.0355947 0.0223033 0)
(-0.0388385 0.022537 0)
(-0.0420898 0.0226206 0)
(-0.0453293 0.0225569 0)
(-0.0485379 0.0223496 0)
(-0.0516973 0.0220031 0)
(-0.0547894 0.0215223 0)
(-0.0577969 0.0209126 0)
(-0.0607034 0.02018 0)
(-0.063493 0.0193306 0)
(-0.0661508 0.0183709 0)
(-0.0686627 0.0173078 0)
(-0.0710154 0.0161483 0)
(-0.0731967 0.0148996 0)
(-0.0751952 0.0135692 0)
(-0.0770007 0.0121646 0)
(-0.0786038 0.0106937 0)
(-0.0799963 0.00916435 0)
(-0.0811709 0.00758457 0)
(-0.0821215 0.00596259 0)
(-0.0828431 0.00430673 0)
(-0.0833316 0.00262545 0)
(-0.0835843 0.00092734 0)
(-0.0835996 -0.000778912 0)
(-0.0833768 -0.00248449 0)
(-0.0829166 -0.00418047 0)
(-0.082221 -0.00585784 0)
(-0.0812928 -0.00750753 0)
(-0.0801363 -0.0091204 0)
(-0.078757 -0.0106873 0)
(-0.0771614 -0.0121989 0)
(-0.0753575 -0.0136463 0)
(-0.0733542 -0.0150201 0)
(-0.0711618 -0.0163116 0)
(-0.0687916 -0.0175118 0)
(-0.0662563 -0.018612 0)
(-0.0635693 -0.019604 0)
(-0.0607455 -0.0204796 0)
(-0.0578006 -0.0212313 0)
(-0.0547514 -0.0218519 0)
(-0.0516153 -0.0223347 0)
(-0.0484109 -0.022674 0)
(-0.0451573 -0.0228643 0)
(-0.0418743 -0.0229016 0)
(-0.0385821 -0.0227824 0)
(-0.0353015 -0.0225045 0)
(-0.0320533 -0.0220669 0)
(-0.0288585 -0.0214702 0)
(-0.0257381 -0.0207162 0)
(-0.0227127 -0.0198087 0)
(-0.0198026 -0.0187535 0)
(-0.0170274 -0.0175584 0)
(-0.014406 -0.0162337 0)
(-0.0119563 -0.0147924 0)
(-0.00969519 -0.0132506 0)
(-0.00763822 -0.0116277 0)
(-0.00579971 -0.00994687 0)
(-0.00419263 -0.00823536 0)
(-0.00282881 -0.00652503 0)
(-0.00171809 -0.00485276 0)
(-0.000867869 -0.00326063 0)
(-0.000295907 -0.00179621 0)
(-4.15728e-05 -0.000515378 0)
(-4.96703e-05 0.000744484 0)
(-0.000347545 0.0024462 0)
(-0.0010106 0.00429463 0)
(-0.001987 0.0062344 0)
(-0.00325069 0.0082186 0)
(-0.00478856 0.010206 0)
(-0.00658537 0.0121607 0)
(-0.00862449 0.0140522 0)
(-0.0108887 0.0158548 0)
(-0.0133603 0.0175468 0)
(-0.0160207 0.0191107 0)
(-0.0188506 0.0205325 0)
(-0.0218303 0.0218012 0)
(-0.0249395 0.0229083 0)
(-0.0281575 0.0238482 0)
(-0.0314636 0.0246169 0)
(-0.0348366 0.0252126 0)
(-0.0382557 0.0256349 0)
(-0.0416999 0.0258848 0)
(-0.0451487 0.0259646 0)
(-0.0485819 0.0258775 0)
(-0.0519796 0.0256277 0)
(-0.0553228 0.0252201 0)
(-0.0585926 0.0246603 0)
(-0.0617712 0.0239544 0)
(-0.0648415 0.023109 0)
(-0.067787 0.0221311 0)
(-0.0705923 0.0210282 0)
(-0.0732426 0.0198079 0)
(-0.0757244 0.0184782 0)
(-0.0780249 0.0170474 0)
(-0.0801324 0.0155238 0)
(-0.0820363 0.013916 0)
(-0.0837267 0.0122329 0)
(-0.0851953 0.0104835 0)
(-0.0864344 0.00867681 0)
(-0.0874378 0.00682224 0)
(-0.0882001 0.00492921 0)
(-0.0887172 0.0030073 0)
(-0.0889863 0.00106625 0)
(-0.0890056 -0.000884063 0)
(-0.0887744 -0.00283365 0)
(-0.0882935 -0.00477239 0)
(-0.0875646 -0.00669008 0)
(-0.0865909 -0.00857641 0)
(-0.0853766 -0.010421 0)
(-0.0839274 -0.0122135 0)
(-0.08225 -0.0139434 0)
(-0.0803526 -0.0156005 0)
(-0.0782444 -0.0171743 0)
(-0.075936 -0.0186546 0)
(-0.0734391 -0.0200316 0)