/*--------------------------------*- C++ -*----------------------------------*\
  =========                 |
  \\      /  F ield         | OpenFOAM: The Open Source CFD Toolbox
   \\    /   O peration     | Website:  https://openfoam.org
    \\  /    A nd           | Version:  7
     \\/     M anipulation  |
\*---------------------------------------------------------------------------*/
FoamFile
{
    version     2.0;
    format      ascii;
    class       surfaceScalarField;
    location    "0.15";
    object      phi;
}
// * * * * * * * * * * * * * * * * * * * * * * * * * * * * * * * * * * * * * //

dimensions      [0 3 -1 0 0 0 0];

internalField   nonuniform List<scalar> 
12640
(
1.90017e-10
-1.90083e-10
5.54667e-10
-3.64625e-10
8.80444e-10
-3.25773e-10
1.04224e-09
-1.61816e-10
9.78022e-10
6.42128e-11
6.60733e-10
3.17275e-10
8.35346e-11
5.77209e-10
-7.48493e-10
8.3203e-10
-1.82316e-09
1.07468e-09
-3.12403e-09
1.30089e-09
-4.63218e-09
1.50814e-09
-6.32718e-09
1.69498e-09
-8.18782e-09
1.86064e-09
-1.01926e-08
2.00479e-09
-1.23201e-08
2.12745e-09
-1.4549e-08
2.22887e-09
-1.68584e-08
2.30947e-09
-1.92282e-08
2.36976e-09
-2.16385e-08
2.41036e-09
-2.40704e-08
2.43195e-09
-2.65057e-08
2.43525e-09
-2.89267e-08
2.42102e-09
-3.13168e-08
2.39006e-09
-3.36599e-08
2.34316e-09
-3.5941e-08
2.28113e-09
-3.81458e-08
2.20479e-09
-4.02608e-08
2.11497e-09
-4.22733e-08
2.0125e-09
-4.41715e-08
1.89824e-09
-4.59445e-08
1.77302e-09
-4.75822e-08
1.63769e-09
-4.90753e-08
1.49309e-09
-5.04154e-08
1.34011e-09
-5.1595e-08
1.17959e-09
-5.26074e-08
1.01241e-09
-5.34469e-08
8.39468e-10
-5.41085e-08
6.6167e-10
-5.45885e-08
4.79912e-10
-5.48836e-08
2.95131e-10
-5.49918e-08
1.08269e-10
-5.49121e-08
-7.97162e-11
-5.46443e-08
-2.67835e-10
-5.41892e-08
-4.55079e-10
-5.35488e-08
-6.40438e-10
-5.27259e-08
-8.22883e-10
-5.17246e-08
-1.00136e-09
-5.05498e-08
-1.1748e-09
-4.92076e-08
-1.34214e-09
-4.77054e-08
-1.50228e-09
-4.60512e-08
-1.65414e-09
-4.42546e-08
-1.79661e-09
-4.2326e-08
-1.92862e-09
-4.02769e-08
-2.04909e-09
-3.812e-08
-2.15694e-09
-3.58689e-08
-2.25113e-09
-3.35382e-08
-2.33064e-09
-3.11438e-08
-2.39448e-09
-2.87021e-08
-2.44171e-09
-2.62306e-08
-2.47142e-09
-2.37479e-08
-2.48278e-09
-2.12728e-08
-2.47503e-09
-1.88254e-08
-2.44745e-09
-1.64259e-08
-2.39947e-09
-1.40953e-08
-2.33058e-09
-1.18549e-08
-2.24041e-09
-9.72624e-09
-2.12871e-09
-7.73084e-09
-1.99541e-09
-5.89018e-09
-1.84066e-09
-4.22528e-09
-1.66488e-09
-2.75642e-09
-1.46886e-09
-1.50257e-09
-1.25384e-09
-4.80758e-10
-1.02182e-09
2.95065e-10
-7.75825e-10
8.15692e-10
-5.20633e-10
1.0795e-09
-2.63811e-10
1.09719e-09
-1.77026e-11
8.99784e-10
1.97404e-10
5.529e-10
3.46885e-10
1.83475e-10
3.69423e-10
1.83472e-10
3.64953e-10
-5.55077e-10
8.83669e-10
-8.83327e-10
1.21236e-09
-6.54474e-10
1.12871e-09
-7.81504e-11
4.95378e-10
6.97523e-10
-7.61256e-10
1.5739e-09
-2.67029e-09
2.48622e-09
-5.23064e-09
3.39237e-09
-8.42094e-09
4.26495e-09
-1.22062e-08
5.08614e-09
-1.65424e-08
5.84437e-09
-2.13797e-08
6.53232e-09
-2.66646e-08
7.14554e-09
-3.23415e-08
7.68162e-09
-3.83536e-08
8.1396e-09
-4.46443e-08
8.51953e-09
-5.11571e-08
8.82232e-09
-5.78368e-08
9.04942e-09
-6.46291e-08
9.20271e-09
-7.14816e-08
9.2844e-09
-7.83433e-08
9.29695e-09
-8.51652e-08
9.24302e-09
-9.19006e-08
9.12541e-09
-9.85045e-08
8.94704e-09
-1.04934e-07
8.7109e-09
-1.11149e-07
8.42004e-09
-1.17112e-07
8.07755e-09
-1.22786e-07
7.6866e-09
-1.28138e-07
7.25035e-09
-1.33137e-07
6.77202e-09
-1.37754e-07
6.25487e-09
-1.41964e-07
5.70218e-09
-1.45741e-07
5.11726e-09
-1.49065e-07
4.50345e-09
-1.51916e-07
3.86413e-09
-1.5428e-07
3.20275e-09
-1.56141e-07
2.52278e-09
-1.57488e-07
1.82775e-09
-1.58315e-07
1.12125e-09
-1.58613e-07
4.06933e-10
-1.58382e-07
-3.1148e-10
-1.57619e-07
-1.03021e-09
-1.56329e-07
-1.74541e-09
-1.54516e-07
-2.45316e-09
-1.52189e-07
-3.14949e-09
-1.4936e-07
-3.83039e-09
-1.46043e-07
-4.49179e-09
-1.42256e-07
-5.12959e-09
-1.38019e-07
-5.73965e-09
-1.33355e-07
-6.31784e-09
-1.28292e-07
-6.86e-09
-1.22858e-07
-7.36203e-09
-1.17087e-07
-7.81986e-09
-1.11015e-07
-8.22949e-09
-1.04679e-07
-8.58699e-09
-9.81211e-08
-8.88857e-09
-9.1385e-08
-9.13056e-09
-8.45172e-08
-9.30947e-09
-7.75666e-08
-9.42206e-09
-7.05841e-08
-9.46529e-09
-6.36226e-08
-9.43645e-09
-5.6737e-08
-9.33311e-09
-4.99832e-08
-9.15329e-09
-4.34183e-08
-8.89542e-09
-3.71002e-08
-8.55847e-09
-3.10869e-08
-8.14204e-09
-2.54358e-08
-7.64648e-09
-2.02034e-08
-7.0731e-09
-1.54439e-08
-6.42437e-09
-1.12084e-08
-5.70435e-09
-7.5431e-09
-4.91918e-09
-4.48699e-09
-4.07794e-09
-2.06896e-09
-3.19386e-09
-3.03234e-10
-2.28638e-09
8.1715e-10
-1.38421e-09
1.32976e-09
-5.30316e-10
1.31644e-09
2.10725e-10
9.21184e-10
7.42135e-10
3.69434e-10
9.21165e-10
5.52906e-10
3.2905e-10
-8.84137e-10
6.63068e-10
-1.21735e-09
6.08295e-10
-5.99708e-10
-9.55429e-11
6.25698e-10
-1.61887e-09
2.22086e-09
-4.06068e-09
4.0157e-09
-7.46522e-09
5.89077e-09
-1.18365e-08
7.76364e-09
-1.71491e-08
9.5776e-09
-2.33569e-08
1.12939e-08
-3.03985e-08
1.2886e-08
-3.82026e-08
1.43364e-08
-4.66908e-08
1.56337e-08
-5.57804e-08
1.67712e-08
-6.5386e-08
1.77452e-08
-7.54212e-08
1.85548e-08
-8.57998e-08
1.92009e-08
-9.64361e-08
1.96857e-08
-1.07246e-07
2.00127e-08
-1.18148e-07
2.01861e-08
-1.29061e-07
2.02106e-08
-1.3991e-07
2.00917e-08
-1.5062e-07
1.98352e-08
-1.6112e-07
1.9447e-08
-1.71342e-07
1.89336e-08
-1.81224e-07
1.83013e-08
-1.90703e-07
1.75568e-08
-1.99723e-07
1.67069e-08
-2.08231e-07
1.57584e-08
-2.16177e-07
1.47183e-08
-2.23516e-07
1.35936e-08
-2.30205e-07
1.23915e-08
-2.36207e-07
1.11192e-08
-2.41488e-07
9.78402e-09
-2.46017e-07
8.39335e-09
-2.49769e-07
6.9547e-09
-2.52722e-07
5.47568e-09
-2.54858e-07
3.96404e-09
-2.56165e-07
2.42763e-09
-2.56632e-07
8.74441e-10
-2.56256e-07
-6.87405e-10
-2.55037e-07
-2.24963e-09
-2.52978e-07
-3.80384e-09
-2.5009e-07
-5.34153e-09
-2.46386e-07
-6.85404e-09
-2.41883e-07
-8.33265e-09
-2.36607e-07
-9.76851e-09
-2.30583e-07
-1.11527e-08
-2.23847e-07
-1.24764e-08
-2.16434e-07
-1.37305e-08
-2.08388e-07
-1.49062e-08
-1.99755e-07
-1.59945e-08
-1.90588e-07
-1.69868e-08
-1.80944e-07
-1.78744e-08
-1.70881e-07
-1.86491e-08
-1.60467e-07
-1.93026e-08
-1.49771e-07
-1.98272e-08
-1.38865e-07
-2.02157e-08
-1.27826e-07
-2.04611e-08
-1.16734e-07
-2.05572e-08
-1.05672e-07
-2.04983e-08
-9.47252e-08
-2.02798e-08
-8.39808e-08
-1.98977e-08
-7.35271e-08
-1.93491e-08
-6.34532e-08
-1.86324e-08
-5.38477e-08
-1.77476e-08
-4.47979e-08
-1.66962e-08
-3.63888e-08
-1.54822e-08
-2.87011e-08
-1.41121e-08
-2.18094e-08
-1.2596e-08
-1.57799e-08
-1.09488e-08
-1.06664e-08
-9.19139e-09
-6.50673e-09
-7.35355e-09
-3.31605e-09
-5.47705e-09
-1.07938e-09
-3.62089e-09
2.59073e-10
-1.86877e-09
8.09232e-10
-3.39446e-10
7.50731e-10
8.00633e-10
3.49625e-10
1.32228e-09
9.02527e-10
1.7082e-10
-1.05496e-09
1.02254e-10
-1.1488e-09
-5.91352e-10
9.38621e-11
-2.17317e-09
2.20752e-09
-4.8199e-09
4.86758e-09
-8.63762e-09
7.8334e-09
-1.36756e-08
1.09287e-08
-1.99387e-08
1.40267e-08
-2.73976e-08
1.70366e-08
-3.59974e-08
1.98936e-08
-4.56638e-08
2.25524e-08
-5.63086e-08
2.49813e-08
-6.78341e-08
2.71592e-08
-8.01354e-08
2.90725e-08
-9.31039e-08
3.07136e-08
-1.06628e-07
3.20792e-08
-1.20597e-07
3.31694e-08
-1.34898e-07
3.3987e-08
-1.49422e-07
3.45367e-08
-1.64061e-07
3.4825e-08
-1.7871e-07
3.48594e-08
-1.93267e-07
3.46487e-08
-2.07634e-07
3.42022e-08
-2.21717e-07
3.35299e-08
-2.35425e-07
3.26424e-08
-2.48675e-07
3.15506e-08
-2.61383e-07
3.02656e-08
-2.73476e-07
2.87992e-08
-2.8488e-07
2.71628e-08
-2.95531e-07
2.53686e-08
-3.05366e-07
2.34285e-08
-3.14329e-07
2.1355e-08
-3.2237e-07
1.91603e-08
-3.29443e-07
1.68573e-08
-3.35509e-07
1.44587e-08
-3.40531e-07
1.19774e-08
-3.44482e-07
9.42674e-09
-3.47338e-07
6.82003e-09
-3.49082e-07
4.17088e-09
-3.497e-07
1.49314e-09
-3.49189e-07
-1.19913e-09
-3.47547e-07
-3.89167e-09
-3.44781e-07
-6.56995e-09
-3.40903e-07
-9.21929e-09
-3.35932e-07
-1.18248e-08
-3.29893e-07
-1.43714e-08
-3.22818e-07
-1.6844e-08
-3.14743e-07
-1.92272e-08
-3.05714e-07
-2.15057e-08
-2.9578e-07
-2.36642e-08
-2.84999e-07
-2.56874e-08
-2.73434e-07
-2.75602e-08
-2.61153e-07
-2.92676e-08
-2.48232e-07
-3.07952e-08
-2.34752e-07
-3.21286e-08
-2.20801e-07
-3.32543e-08
-2.06469e-07
-3.41591e-08
-1.91854e-07
-3.48308e-08
-1.77057e-07
-3.52579e-08
-1.62184e-07
-3.54302e-08
-1.47344e-07
-3.53384e-08
-1.32649e-07
-3.4975e-08
-1.18212e-07
-3.43339e-08
-1.04151e-07
-3.34109e-08
-9.05789e-08
-3.22042e-08
-7.76119e-08
-3.07146e-08
-6.5362e-08
-2.89461e-08
-5.39375e-08
-2.69067e-08
-4.34404e-08
-2.46091e-08
-3.39643e-08
-2.20722e-08
-2.55906e-08
-1.93225e-08
-1.83847e-08
-1.63973e-08
-1.23913e-08
-1.3347e-08
-7.62739e-09
-1.02409e-08
-4.07498e-09
-7.17331e-09
-1.671e-09
-4.27276e-09
-2.95939e-10
-1.71452e-09
2.38945e-10
2.65742e-10
2.06671e-10
1.35456e-09
1.10919e-09
-4.80043e-11
-1.00695e-09
-6.55249e-10
-5.41537e-10
-2.1586e-09
1.5972e-09
-4.79776e-09
4.84668e-09
-8.73644e-09
8.80628e-09
-1.40738e-08
1.31707e-08
-2.08546e-08
1.77095e-08
-2.9079e-08
2.22512e-08
-3.87117e-08
2.66692e-08
-4.96889e-08
3.08708e-08
-6.1925e-08
3.47885e-08
-7.5318e-08
3.83743e-08
-8.97538e-08
4.15949e-08
-1.05109e-07
4.44282e-08
-1.21256e-07
4.68606e-08
-1.38063e-07
4.88856e-08
-1.55395e-07
5.05016e-08
-1.73119e-07
5.17114e-08
-1.91104e-07
5.25208e-08
-2.09217e-07
5.29385e-08
-2.27333e-07
5.2975e-08
-2.45327e-07
5.26426e-08
-2.63079e-07
5.19548e-08
-2.80476e-07
5.09264e-08
-2.97406e-07
4.95727e-08
-3.13766e-07
4.79101e-08
-3.29455e-07
4.59551e-08
-3.44381e-07
4.37251e-08
-3.58456e-07
4.12377e-08
-3.71598e-07
3.85108e-08
-3.83732e-07
3.55629e-08
-3.9479e-07
3.24125e-08
-4.04708e-07
2.90785e-08
-4.13431e-07
2.558e-08
-4.20909e-07
2.19367e-08
-4.271e-07
1.81682e-08
-4.31967e-07
1.42946e-08
-4.35484e-07
1.03363e-08
-4.37627e-07
6.31405e-09
-4.38383e-07
2.24881e-09
-4.37744e-07
-1.83799e-09
-4.35711e-07
-5.92466e-09
-4.32292e-07
-9.98918e-09
-4.27502e-07
-1.40092e-08
-4.21364e-07
-1.79623e-08
-4.1391e-07
-2.18255e-08
-4.05178e-07
-2.55759e-08
-3.95215e-07
-2.91904e-08
-3.84075e-07
-3.26458e-08
-3.7182e-07
-3.59191e-08
-3.5852e-07
-3.89872e-08
-3.44253e-07
-4.18273e-08
-3.29103e-07
-4.44173e-08
-3.13163e-07
-4.67351e-08
-2.96532e-07
-4.87595e-08
-2.79316e-07
-5.04703e-08
-2.61628e-07
-5.1848e-08
-2.43584e-07
-5.28744e-08
-2.25309e-07
-5.35327e-08
-2.06931e-07
-5.3808e-08
-1.88583e-07
-5.36871e-08
-1.70399e-07
-5.31591e-08
-1.52517e-07
-5.22158e-08
-1.35075e-07
-5.08519e-08
-1.18214e-07
-4.90658e-08
-1.02069e-07
-4.68598e-08
-8.67733e-08
-4.42415e-08
-7.24559e-08
-4.12242e-08
-5.92363e-08
-3.78287e-08
-4.72236e-08
-3.40849e-08
-3.65124e-08
-3.00337e-08
-2.71784e-08
-2.57312e-08
-1.92736e-08
-2.12518e-08
-1.28198e-08
-1.66948e-08
-7.80166e-09
-1.21915e-08
-4.1586e-09
-7.91584e-09
-1.77563e-09
-4.09752e-09
-4.73678e-10
-1.03622e-09
1.3193e-12
8.79569e-10
1.1105e-09
-2.94276e-10
-7.12676e-10
-1.51727e-09
6.8148e-10
-3.9369e-09
4.01683e-09
-7.75172e-09
8.66149e-09
-1.30986e-08
1.41531e-08
-2.00586e-08
2.01308e-08
-2.8664e-08
2.63149e-08
-3.89048e-08
3.2492e-08
-5.07359e-08
3.85003e-08
-6.40835e-08
4.42184e-08
-7.88508e-08
4.95559e-08
-9.49231e-08
5.44466e-08
-1.12172e-07
5.88436e-08
-1.30458e-07
6.27147e-08
-1.49637e-07
6.60395e-08
-1.69558e-07
6.88068e-08
-1.9007e-07
7.10128e-08
-2.11018e-07
7.26597e-08
-2.32251e-07
7.37541e-08
-2.53619e-07
7.43068e-08
-2.74976e-07
7.43312e-08
-2.96177e-07
7.38437e-08
-3.17084e-07
7.28622e-08
-3.37564e-07
7.14066e-08
-3.57489e-07
6.94978e-08
-3.76737e-07
6.71581e-08
-3.95193e-07
6.44104e-08
-4.12746e-07
6.12786e-08
-4.29296e-07
5.77872e-08
-4.44746e-07
5.39612e-08
-4.59009e-07
4.9826e-08
-4.72005e-07
4.54077e-08
-4.83659e-07
4.07327e-08
-4.93907e-07
3.58279e-08
-5.0269e-07
3.07205e-08
-5.09961e-07
2.54383e-08
-5.15675e-07
2.00093e-08
-5.19801e-07
1.44622e-08
-5.22313e-07
8.8261e-09
-5.23195e-07
3.13041e-09
-5.22438e-07
-2.5949e-09
-5.20043e-07
-8.31942e-09
-5.1602e-07
-1.40123e-08
-5.10387e-07
-1.96424e-08
-5.03171e-07
-2.51782e-08
-4.94409e-07
-3.05877e-08
-4.84146e-07
-3.5839e-08
-4.72436e-07
-4.08998e-08
-4.59344e-07
-4.57378e-08
-4.44942e-07
-5.0321e-08
-4.29312e-07
-5.46174e-08
-4.12544e-07
-5.85954e-08
-3.94737e-07
-6.22241e-08
-3.75999e-07
-6.54733e-08
-3.56445e-07
-6.83137e-08
-3.36198e-07
-7.07173e-08
-3.15388e-07
-7.26574e-08
-2.94154e-07
-7.41093e-08
-2.72636e-07
-7.50502e-08
-2.50984e-07
-7.54598e-08
-2.29351e-07
-7.53206e-08
-2.07892e-07
-7.46184e-08
-1.86765e-07
-7.33426e-08
-1.6613e-07
-7.14871e-08
-1.46145e-07
-6.90508e-08
-1.26966e-07
-6.60386e-08
-1.08745e-07
-6.24622e-08
-9.16278e-08
-5.83417e-08
-7.5749e-08
-5.37075e-08
-6.12322e-08
-4.86017e-08
-4.8184e-08
-4.30819e-08
-3.66907e-08
-3.72244e-08
-2.68133e-08
-3.11292e-08
-1.8582e-08
-2.49262e-08
-1.19899e-08
-1.87836e-08
-6.98718e-09
-1.29185e-08
-3.47422e-09
-7.61048e-09
-1.29537e-09
-3.21507e-09
-2.33153e-10
-1.82656e-10
8.77345e-10
-5.49922e-10
-1.62774e-10
-2.42637e-09
2.55795e-09
-5.82195e-09
7.41241e-09
-1.08842e-08
1.37237e-08
-1.77137e-08
2.09827e-08
-2.63655e-08
2.87826e-08
-3.68523e-08
3.68017e-08
-4.91489e-08
4.47885e-08
-6.3197e-08
5.25485e-08
-7.89106e-08
5.99321e-08
-9.61808e-08
6.6826e-08
-1.1488e-07
7.31458e-08
-1.34866e-07
7.88298e-08
-1.55987e-07
8.38351e-08
-1.7808e-07
8.81333e-08
-2.00982e-07
9.17082e-08
-2.24522e-07
9.45529e-08
-2.48531e-07
9.66685e-08
-2.72839e-07
9.80623e-08
-2.97279e-07
9.87469e-08
-3.21687e-07
9.87391e-08
-3.45902e-07
9.80588e-08
-3.69769e-07
9.67291e-08
-3.93138e-07
9.47752e-08
-4.15864e-07
9.22243e-08
-4.37811e-07
8.91051e-08
-4.58848e-07
8.54476e-08
-4.78853e-07
8.1283e-08
-4.97709e-07
7.66432e-08
-5.15309e-07
7.15613e-08
-5.31553e-07
6.60707e-08
-5.46352e-07
6.02059e-08
-5.59621e-07
5.40018e-08
-5.71287e-07
4.74938e-08
-5.81284e-07
4.07181e-08
-5.89557e-07
3.37115e-08
-5.96059e-07
2.65111e-08
-6.00752e-07
1.9155e-08
-6.03607e-07
1.16815e-08
-6.04607e-07
4.12982e-09
-6.03741e-07
-3.4604e-09
-6.01012e-07
-1.10489e-08
-5.96429e-07
-1.8595e-08
-5.90014e-07
-2.60573e-08
-5.81798e-07
-3.33942e-08
-5.71823e-07
-4.05636e-08
-5.60138e-07
-4.75232e-08
-5.46808e-07
-5.42305e-08
-5.31902e-07
-6.06431e-08
-5.15505e-07
-6.67186e-08
-4.97707e-07
-7.24151e-08
-4.78611e-07
-7.76913e-08
-4.58329e-07
-8.25064e-08
-4.36981e-07
-8.6821e-08
-4.14698e-07
-9.05968e-08
-3.91618e-07
-9.37973e-08
-3.67888e-07
-9.63879e-08
-3.4366e-07
-9.83364e-08
-3.19097e-07
-9.96138e-08
-2.94363e-07
-1.00194e-07
-2.69629e-07
-1.00054e-07
-2.4507e-07
-9.91777e-08
-2.20861e-07
-9.75511e-08
-1.97181e-07
-9.51676e-08
-1.74204e-07
-9.20271e-08
-1.52106e-07
-8.81374e-08
-1.31052e-07
-8.35155e-08
-1.11205e-07
-7.8189e-08
-9.2714e-08
-7.21985e-08
-7.57155e-08
-6.56002e-08
-6.03288e-08
-5.84687e-08
-4.66518e-08
-5.09015e-08
-3.47568e-08
-4.30242e-08
-2.46859e-08
-3.4997e-08
-1.64462e-08
-2.70232e-08
-1.00053e-08
-1.93595e-08
-5.28695e-09
-1.23288e-08
-2.16825e-09
-6.33378e-09
-4.78418e-10
-1.87249e-09
3.98935e-10
-8.05121e-10
6.42348e-10
-3.34794e-09
5.10077e-09
-7.74679e-09
1.18113e-08
-1.40941e-08
2.0071e-08
-2.24487e-08
2.93372e-08
-3.28338e-08
3.91678e-08
-4.52375e-08
4.92054e-08
-5.96149e-08
5.91659e-08
-7.58912e-08
6.88248e-08
-9.39658e-08
7.80067e-08
-1.13716e-07
8.65763e-08
-1.35001e-07
9.44309e-08
-1.57666e-07
1.01494e-07
-1.81543e-07
1.07713e-07
-2.06459e-07
1.13049e-07
-2.32232e-07
1.17481e-07
-2.58679e-07
1.21e-07
-2.85615e-07
1.23604e-07
-3.12855e-07
1.25302e-07
-3.40215e-07
1.26108e-07
-3.67517e-07
1.26041e-07
-3.94584e-07
1.25126e-07
-4.21247e-07
1.23391e-07
-4.47339e-07
1.20868e-07
-4.72703e-07
1.17589e-07
-4.97189e-07
1.1359e-07
-5.20651e-07
1.0891e-07
-5.42955e-07
1.03587e-07
-5.63974e-07
9.76618e-08
-5.83588e-07
9.11756e-08
-6.01689e-07
8.41711e-08
-6.18174e-07
7.66917e-08
-6.32954e-07
6.87817e-08
-6.45947e-07
6.04863e-08
-6.5708e-07
5.18512e-08
-6.66292e-07
4.29233e-08
-6.7353e-07
3.37498e-08
-6.78754e-07
2.43789e-08
-6.81932e-07
1.48597e-08
-6.83044e-07
5.24171e-09
-6.8208e-07
-4.42456e-09
-6.79041e-07
-1.4088e-08
-6.73939e-07
-2.36969e-08
-6.66798e-07
-3.31988e-08
-6.57651e-07
-4.25409e-08
-6.46545e-07
-5.16698e-08
-6.33536e-07
-6.0532e-08
-6.18693e-07
-6.90737e-08
-6.02095e-07
-7.72411e-08
-5.83832e-07
-8.49809e-08
-5.64007e-07
-9.22401e-08
-5.42732e-07
-9.89664e-08
-5.2013e-07
-1.05109e-07
-4.96334e-07
-1.10617e-07
-4.71486e-07
-1.15444e-07
-4.4574e-07
-1.19543e-07
-4.19256e-07
-1.22872e-07
-3.92203e-07
-1.2539e-07
-3.64756e-07
-1.27061e-07
-3.37098e-07
-1.27852e-07
-3.09415e-07
-1.27738e-07
-2.81897e-07
-1.26695e-07
-2.54738e-07
-1.2471e-07
-2.28131e-07
-1.21775e-07
-2.02268e-07
-1.1789e-07
-1.77338e-07
-1.13068e-07
-1.53523e-07
-1.0733e-07
-1.31e-07
-1.00712e-07
-1.09931e-07
-9.32669e-08
-9.04677e-08
-8.50636e-08
-7.27415e-08
-7.61948e-08
-5.68637e-08
-6.67792e-08
-4.29207e-08
-5.69673e-08
-3.09698e-08
-4.69479e-08
-2.10366e-08
-3.69565e-08
-1.31109e-08
-2.72851e-08
-7.14592e-09
-1.82939e-08
-3.05695e-09
-1.04228e-08
-7.24272e-10
-4.20518e-09
-3.25335e-10
-1.05483e-09
1.69717e-09
-4.26181e-09
8.30774e-09
-9.66978e-09
1.72193e-08
-1.73157e-08
2.77169e-08
-2.7214e-08
3.92356e-08
-3.93527e-08
5.13065e-08
-5.36913e-08
6.35441e-08
-7.01618e-08
7.56363e-08
-8.867e-08
8.73329e-08
-1.09098e-07
9.84349e-08
-1.31309e-07
1.08787e-07
-1.55146e-07
1.18268e-07
-1.80442e-07
1.2679e-07
-2.07015e-07
1.34286e-07
-2.34678e-07
1.40712e-07
-2.63236e-07
1.46039e-07
-2.92491e-07
1.50255e-07
-3.22245e-07
1.53358e-07
-3.52299e-07
1.55356e-07
-3.82455e-07
1.56264e-07
-4.1252e-07
1.56106e-07
-4.42305e-07
1.54911e-07
-4.71625e-07
1.52712e-07
-5.00303e-07
1.49546e-07
-5.28168e-07
1.45453e-07
-5.55055e-07
1.40478e-07
-5.8081e-07
1.34665e-07
-6.05286e-07
1.28063e-07
-6.28345e-07
1.20721e-07
-6.49859e-07
1.12689e-07
-6.69708e-07
1.0402e-07
-6.87783e-07
9.47669e-08
-7.03986e-07
8.49843e-08
-7.18227e-07
7.47277e-08
-7.30429e-07
6.40536e-08
-7.40525e-07
5.30194e-08
-7.48459e-07
4.16834e-08
-7.54185e-07
3.0105e-08
-7.5767e-07
1.83446e-08
-7.58892e-07
6.46323e-09
-7.57839e-07
-5.47699e-09
-7.54514e-07
-1.74131e-08
-7.48929e-07
-2.92815e-08
-7.41111e-07
-4.10177e-08
-7.31095e-07
-5.25568e-08
-7.18931e-07
-6.38332e-08
-7.04682e-07
-7.4781e-08
-6.88422e-07
-8.53344e-08
-6.70235e-07
-9.54275e-08
-6.50221e-07
-1.04995e-07
-6.2849e-07
-1.13971e-07
-6.05163e-07
-1.22293e-07
-5.80373e-07
-1.29898e-07
-5.54265e-07
-1.36726e-07
-5.26993e-07
-1.42716e-07
-4.98721e-07
-1.47815e-07
-4.69623e-07
-1.5197e-07
-4.39881e-07
-1.55131e-07
-4.09685e-07
-1.57256e-07
-3.79232e-07
-1.58306e-07
-3.48722e-07
-1.58248e-07
-3.18361e-07
-1.57056e-07
-2.88356e-07
-1.54715e-07
-2.58916e-07
-1.51215e-07
-2.30247e-07
-1.46559e-07
-2.02554e-07
-1.40761e-07
-1.76033e-07
-1.33851e-07
-1.50874e-07
-1.25872e-07
-1.27255e-07
-1.16886e-07
-1.05339e-07
-1.06979e-07
-8.52741e-08
-9.62599e-08
-6.71857e-08
-8.48676e-08
-5.11765e-08
-7.29765e-08
-3.73224e-08
-6.08019e-08
-2.56706e-08
-4.86083e-08
-1.62375e-08
-3.67182e-08
-9.00868e-09
-2.55226e-08
-3.94071e-09
-1.54907e-08
-9.65393e-10
-7.18049e-09
-1.29073e-09
-1.29665e-09
2.99382e-09
-5.15686e-09
1.21679e-08
-1.15662e-08
2.36286e-08
-2.05078e-08
3.66585e-08
-3.19515e-08
5.06793e-08
-4.5848e-08
6.52029e-08
-6.2126e-08
7.98221e-08
-8.06915e-08
9.42019e-08
-1.01429e-07
1.0807e-07
-1.24201e-07
1.21207e-07
-1.48853e-07
1.33439e-07
-1.75214e-07
1.4463e-07
-2.03102e-07
1.54678e-07
-2.32322e-07
1.63506e-07
-2.62671e-07
1.71061e-07
-2.93944e-07
1.77311e-07
-3.25928e-07
1.82239e-07
-3.58411e-07
1.85842e-07
-3.91182e-07
1.88127e-07
-4.24032e-07
1.89113e-07
-4.56753e-07
1.88827e-07
-4.89144e-07
1.87302e-07
-5.21008e-07
1.84576e-07
-5.52156e-07
1.80694e-07
-5.82406e-07
1.75702e-07
-6.11581e-07
1.69654e-07
-6.39518e-07
1.62602e-07
-6.66058e-07
1.54603e-07
-6.91054e-07
1.45717e-07
-7.14369e-07
1.36004e-07
-7.35876e-07
1.25527e-07
-7.55458e-07
1.14349e-07
-7.73009e-07
1.02535e-07
-7.88434e-07
9.01531e-08
-8.01651e-07
7.72699e-08
-8.12586e-07
6.39547e-08
-8.2118e-07
5.02777e-08
-8.27386e-07
3.63101e-08
-8.31165e-07
2.21243e-08
-8.32496e-07
7.79388e-09
-8.31366e-07
-6.60674e-09
-8.27777e-07
-2.1002e-08
-8.21743e-07
-3.53154e-08
-8.13291e-07
-4.94698e-08
-8.02461e-07
-6.33871e-08
-7.89305e-07
-7.69888e-08
-7.7389e-07
-9.01961e-08
-7.56295e-07
-1.0293e-07
-7.36611e-07
-1.15112e-07
-7.14943e-07
-1.26663e-07
-6.91409e-07
-1.37505e-07
-6.66138e-07
-1.47564e-07
-6.39274e-07
-1.56763e-07
-6.10969e-07
-1.65031e-07
-5.81388e-07
-1.72297e-07
-5.50707e-07
-1.78496e-07
-5.19111e-07
-1.83566e-07
-4.86794e-07
-1.87448e-07
-4.53959e-07
-1.90091e-07
-4.20815e-07
-1.9145e-07
-3.87577e-07
-1.91486e-07
-3.54464e-07
-1.9017e-07
-3.21696e-07
-1.87482e-07
-2.89496e-07
-1.83414e-07
-2.58086e-07
-1.77969e-07
-2.27682e-07
-1.71165e-07
-1.98496e-07
-1.63037e-07
-1.70732e-07
-1.53636e-07
-1.44582e-07
-1.43036e-07
-1.20226e-07
-1.31336e-07
-9.78243e-08
-1.18661e-07
-7.75211e-08
-1.05171e-07
-5.94373e-08
-9.10603e-08
-4.36698e-08
-7.65694e-08
-3.029e-08
-6.19881e-08
-1.93434e-08
-4.76649e-08
-1.085e-08
-3.4016e-08
-4.80804e-09
-2.15327e-08
-1.19924e-09
-1.07893e-08
-2.48997e-09
-1.52973e-09
4.52357e-09
-6.02765e-09
1.66658e-08
-1.34224e-08
3.10234e-08
-2.36465e-08
4.68826e-08
-3.66257e-08
6.36585e-08
-5.22729e-08
8.08501e-08
-7.04845e-08
9.80337e-08
-9.1139e-08
1.14856e-07
-1.14097e-07
1.31027e-07
-1.392e-07
1.4631e-07
-1.66276e-07
1.60515e-07
-1.95137e-07
1.73491e-07
-2.25584e-07
1.85125e-07
-2.5741e-07
1.95331e-07
-2.90398e-07
2.04049e-07
-3.24327e-07
2.11241e-07
-3.58975e-07
2.16887e-07
-3.94117e-07
2.20983e-07
-4.29528e-07
2.23538e-07
-4.64987e-07
2.24572e-07
-5.00276e-07
2.24116e-07
-5.35181e-07
2.22207e-07
-5.69495e-07
2.1889e-07
-6.03017e-07
2.14216e-07
-6.35555e-07
2.0824e-07
-6.66924e-07
2.01022e-07
-6.96948e-07
1.92626e-07
-7.25462e-07
1.83117e-07
-7.52309e-07
1.72565e-07
-7.77344e-07
1.6104e-07
-8.00433e-07
1.48616e-07
-8.21453e-07
1.35368e-07
-8.4029e-07
1.21373e-07
-8.56845e-07
1.06708e-07
-8.7103e-07
9.14545e-08
-8.82767e-07
7.56926e-08
-8.91995e-07
5.95053e-08
-8.98661e-07
4.29762e-08
-9.02728e-07
2.61908e-08
-9.04169e-07
9.23537e-09
-9.02974e-07
-7.80226e-09
-8.99142e-07
-2.48333e-08
-8.9269e-07
-4.17678e-08
-8.83645e-07
-5.85149e-08
-8.72049e-07
-7.49829e-08
-8.57958e-07
-9.10795e-08
-8.41442e-07
-1.06712e-07
-8.22584e-07
-1.21788e-07
-8.01481e-07
-1.36215e-07
-7.78243e-07
-1.499e-07
-7.52995e-07
-1.62753e-07
-7.25874e-07
-1.74685e-07
-6.9703e-07
-1.85607e-07
-6.66625e-07
-1.95436e-07
-6.34833e-07
-2.04089e-07
-6.0184e-07
-2.11489e-07
-5.67842e-07
-2.17564e-07
-5.33044e-07
-2.22246e-07
-4.97659e-07
-2.25476e-07
-4.61909e-07
-2.272e-07
-4.26021e-07
-2.27374e-07
-3.90227e-07
-2.25964e-07
-3.5476e-07
-2.22949e-07
-3.19858e-07
-2.18317e-07
-2.85753e-07
-2.12074e-07
-2.52679e-07
-2.0424e-07
-2.20859e-07
-1.94856e-07
-1.90513e-07
-1.83981e-07
-1.61848e-07
-1.71701e-07
-1.35059e-07
-1.58125e-07
-1.10326e-07
-1.43395e-07
-8.7808e-08
-1.27688e-07
-6.76483e-08
-1.1122e-07
-4.99664e-08
-9.42514e-08
-3.486e-08
-7.70945e-08
-2.24048e-08
-6.01201e-08
-1.26562e-08
-4.37646e-08
-5.65335e-09
-2.85356e-08
-1.42487e-09
-1.50178e-08
-3.91484e-09
-1.75406e-09
6.27765e-09
-6.87224e-09
2.1784e-08
-1.52322e-08
3.93833e-08
-2.67193e-08
5.83697e-08
-4.12169e-08
7.81561e-08
-5.86002e-08
9.82334e-08
-7.87329e-08
1.18166e-07
-1.01464e-07
1.37588e-07
-1.2663e-07
1.56193e-07
-1.5405e-07
1.7373e-07
-1.83532e-07
1.89996e-07
-2.1487e-07
2.0483e-07
-2.4785e-07
2.18105e-07
-2.82248e-07
2.29729e-07
-3.17835e-07
2.39636e-07
-3.54376e-07
2.47782e-07
-3.91636e-07
2.54147e-07
-4.29377e-07
2.58725e-07
-4.67364e-07
2.61525e-07
-5.05365e-07
2.62573e-07
-5.43149e-07
2.619e-07
-5.80492e-07
2.59551e-07
-6.17178e-07
2.55576e-07
-6.52996e-07
2.50034e-07
-6.87743e-07
2.42987e-07
-7.21226e-07
2.34505e-07
-7.5326e-07
2.2466e-07
-7.83672e-07
2.13529e-07
-8.12299e-07
2.01191e-07
-8.38987e-07
1.87728e-07
-8.63595e-07
1.73224e-07
-8.85994e-07
1.57767e-07
-9.06066e-07
1.41445e-07
-9.23706e-07
1.24348e-07
-9.38822e-07
1.0657e-07
-9.51333e-07
8.82035e-08
-9.61172e-07
6.93445e-08
-9.68286e-07
5.00902e-08
-9.72634e-07
3.05391e-08
-9.74191e-07
1.07915e-08
-9.72941e-07
-9.05133e-09
-9.68888e-07
-2.88864e-08
-9.62046e-07
-4.86098e-08
-9.52445e-07
-6.81164e-08
-9.40128e-07
-8.73001e-08
-9.25153e-07
-1.06054e-07
-9.07593e-07
-1.24272e-07
-8.87536e-07
-1.41846e-07
-8.65082e-07
-1.58669e-07
-8.40347e-07
-1.74635e-07
-8.13462e-07
-1.89639e-07
-7.84569e-07
-2.03578e-07
-7.53826e-07
-2.1635e-07
-7.21403e-07
-2.27859e-07
-6.87482e-07
-2.3801e-07
-6.52257e-07
-2.46714e-07
-6.15935e-07
-2.53887e-07
-5.7873e-07
-2.59451e-07
-5.40867e-07
-2.63339e-07
-5.02578e-07
-2.65488e-07
-4.64102e-07
-2.6585e-07
-4.25683e-07
-2.64383e-07
-3.87568e-07
-2.61064e-07
-3.50005e-07
-2.5588e-07
-3.13243e-07
-2.48836e-07
-2.77526e-07
-2.39957e-07
-2.43095e-07
-2.29287e-07
-2.10184e-07
-2.16893e-07
-1.79016e-07
-2.02869e-07
-1.49802e-07
-1.87339e-07
-1.2274e-07
-1.70457e-07
-9.80109e-08
-1.52417e-07
-7.57786e-08
-1.33452e-07
-5.61873e-08
-1.13843e-07
-3.93622e-08
-9.39196e-08
-2.54101e-08
-7.40723e-08
-1.44215e-08
-5.47532e-08
-6.47479e-09
-3.64822e-08
-1.64228e-09
-1.98503e-08
-5.55711e-09
-1.97012e-09
8.24779e-09
-7.6909e-09
2.75048e-08
-1.69943e-08
4.86867e-08
-2.97219e-08
7.10974e-08
-4.57167e-08
9.41508e-08
-6.48171e-08
1.17334e-07
-8.68537e-08
1.40203e-07
-1.11647e-07
1.62381e-07
-1.39005e-07
1.83552e-07
-1.68727e-07
2.03452e-07
-2.00597e-07
2.21866e-07
-2.34392e-07
2.38625e-07
-2.69881e-07
2.53594e-07
-3.06823e-07
2.66672e-07
-3.44976e-07
2.77788e-07
-3.84092e-07
2.86898e-07
-4.23921e-07
2.93976e-07
-4.64215e-07
2.99019e-07
-5.04728e-07
3.02038e-07
-5.45214e-07
3.03059e-07
-5.85434e-07
3.02121e-07
-6.25155e-07
2.99272e-07
-6.6415e-07
2.9457e-07
-7.02197e-07
2.88081e-07
-7.39088e-07
2.79878e-07
-7.74619e-07
2.70037e-07
-8.086e-07
2.58641e-07
-8.40848e-07
2.45777e-07
-8.71194e-07
2.31536e-07
-8.99478e-07
2.16012e-07
-9.25553e-07
1.99299e-07
-9.49285e-07
1.81498e-07
-9.7055e-07
1.6271e-07
-9.89239e-07
1.43038e-07
-1.00526e-06
1.22587e-07
-1.01852e-06
1.01464e-07
-1.02895e-06
7.97793e-08
-1.0365e-06
5.7643e-08
-1.04113e-06
3.51677e-08
-1.04281e-06
1.24678e-08
-1.04152e-06
-1.0341e-08
-1.03726e-06
-3.31413e-08
-1.03006e-06
-5.58144e-08
-1.01994e-06
-7.82405e-08
-1.00694e-06
-1.00299e-07
-9.91124e-07
-1.21867e-07
-9.72572e-07
-1.42824e-07
-9.51371e-07
-1.63046e-07
-9.27627e-07
-1.82413e-07
-9.01458e-07
-2.00803e-07
-8.73001e-07
-2.18096e-07
-8.42404e-07
-2.34175e-07
-8.09831e-07
-2.48924e-07
-7.75458e-07
-2.62232e-07
-7.39476e-07
-2.73992e-07
-7.02086e-07
-2.84103e-07
-6.63504e-07
-2.92469e-07
-6.23954e-07
-2.99002e-07
-5.83669e-07
-3.03623e-07
-5.42895e-07
-3.06263e-07
-5.01879e-07
-3.06865e-07
-4.60878e-07
-3.05384e-07
-4.20151e-07
-3.01791e-07
-3.79959e-07
-2.96071e-07
-3.40564e-07
-2.88231e-07
-3.02226e-07
-2.78295e-07
-2.652e-07
-2.66313e-07
-2.29734e-07
-2.52358e-07
-1.9607e-07
-2.36534e-07
-1.64436e-07
-2.18972e-07
-1.3505e-07
-1.99843e-07
-1.08114e-07
-1.79353e-07
-8.38152e-08
-1.57751e-07
-6.23228e-08
-1.35335e-07
-4.37904e-08
-1.12452e-07
-2.83562e-08
-8.95065e-08
-1.61451e-08
-6.69643e-08
-7.2729e-09
-4.53544e-08
-1.85201e-09
-2.52712e-08
-7.40911e-09
-2.17868e-09
1.04265e-08
-8.48519e-09
3.38113e-08
-1.87103e-08
5.89119e-08
-3.26552e-08
8.50423e-08
-5.01244e-08
1.1162e-07
-7.09207e-08
1.3813e-07
-9.48421e-08
1.64124e-07
-1.21679e-07
1.89218e-07
-1.51214e-07
2.13087e-07
-1.8322e-07
2.35458e-07
-2.17462e-07
2.56108e-07
-2.53696e-07
2.74859e-07
-2.91673e-07
2.9157e-07
-3.31137e-07
3.06136e-07
-3.7183e-07
3.18481e-07
-4.13489e-07
3.28557e-07
-4.55854e-07
3.36341e-07
-4.98663e-07
3.41828e-07
-5.41659e-07
3.45033e-07
-5.84586e-07
3.45986e-07
-6.27195e-07
3.4473e-07
-6.69243e-07
3.41319e-07
-7.10493e-07
3.3582e-07
-7.50718e-07
3.28306e-07
-7.89698e-07
3.18858e-07
-8.27225e-07
3.07563e-07
-8.63098e-07
2.94515e-07
-8.97131e-07
2.7981e-07
-9.29147e-07
2.63552e-07
-9.58981e-07
2.45845e-07
-9.8648e-07
2.26799e-07
-1.01151e-06
2.06524e-07
-1.03393e-06
1.85134e-07
-1.05364e-06
1.62747e-07
-1.07053e-06
1.39481e-07
-1.08453e-06
1.15457e-07
-1.09554e-06
9.07981e-08
-1.10353e-06
6.56293e-08
-1.10844e-06
4.00776e-08
-1.11024e-06
1.42718e-08
-1.10893e-06
-1.16575e-08
-1.10449e-06
-3.75779e-08
-1.09695e-06
-6.33558e-08
-1.08634e-06
-8.88558e-08
-1.07269e-06
-1.13942e-07
-1.05608e-06
-1.38476e-07
-1.03658e-06
-1.62322e-07
-1.01429e-06
-1.85341e-07
-9.89307e-07
-2.07396e-07
-9.61761e-07
-2.2835e-07
-9.31789e-07
-2.48068e-07
-8.99546e-07
-2.66417e-07
-8.65201e-07
-2.83269e-07
-8.28936e-07
-2.98496e-07
-7.90949e-07
-3.11979e-07
-7.5145e-07
-3.23602e-07
-7.1066e-07
-3.33259e-07
-6.68814e-07
-3.40849e-07
-6.26154e-07
-3.46283e-07
-5.82934e-07
-3.49483e-07
-5.39415e-07
-3.50384e-07
-4.95864e-07
-3.48936e-07
-4.52552e-07
-3.45103e-07
-4.09753e-07
-3.3887e-07
-3.67743e-07
-3.30241e-07
-3.26797e-07
-3.19242e-07
-2.87184e-07
-3.05926e-07
-2.4917e-07
-2.90372e-07
-2.13014e-07
-2.7269e-07
-1.78964e-07
-2.53022e-07
-1.47257e-07
-2.3155e-07
-1.18118e-07
-2.08492e-07
-9.17585e-08
-1.84111e-07
-6.83739e-08
-1.5872e-07
-4.81467e-08
-1.32679e-07
-3.12458e-08
-1.06407e-07
-1.78297e-08
-8.03804e-08
-8.04969e-09
-5.51344e-08
-2.05494e-09
-3.12659e-08
-9.46407e-09
-2.3806e-09
1.28071e-08
-9.25745e-09
4.06882e-08
-2.03839e-08
7.00383e-08
-3.55236e-08
1.00182e-07
-5.44446e-08
1.30541e-07
-7.69153e-08
1.60601e-07
-1.02702e-07
1.89911e-07
-1.31565e-07
2.18081e-07
-1.63259e-07
2.44781e-07
-1.97534e-07
2.69733e-07
-2.34132e-07
2.92706e-07
-2.72789e-07
3.13516e-07
-3.13236e-07
3.32017e-07
-3.55201e-07
3.48101e-07
-3.98411e-07
3.61691e-07
-4.4259e-07
3.72736e-07
-4.87463e-07
3.81214e-07
-5.32756e-07
3.87122e-07
-5.78202e-07
3.90479e-07
-6.23533e-07
3.91318e-07
-6.68492e-07
3.89689e-07
-7.12826e-07
3.85653e-07
-7.56289e-07
3.79284e-07
-7.98647e-07
3.70664e-07
-8.39672e-07
3.59883e-07
-8.79149e-07
3.4704e-07
-9.16872e-07
3.32238e-07
-9.52647e-07
3.15586e-07
-9.86293e-07
2.97197e-07
-1.01764e-06
2.77191e-07
-1.04653e-06
2.55687e-07
-1.07281e-06
2.32811e-07
-1.09637e-06
2.0869e-07
-1.11708e-06
1.83454e-07
-1.13483e-06
1.57235e-07
-1.14954e-06
1.30169e-07
-1.16114e-06
1.02393e-07
-1.16956e-06
7.4047e-08
-1.17475e-06
4.52722e-08
-1.17669e-06
1.62126e-08
-1.17536e-06
-1.29862e-08
-1.17076e-06
-4.21764e-08
-1.16291e-06
-7.12087e-08
-1.15183e-06
-9.99323e-08
-1.13758e-06
-1.28195e-07
-1.12021e-06
-1.55844e-07
-1.09981e-06
-1.82725e-07
-1.07647e-06