/*--------------------------------*- C++ -*----------------------------------*\
  =========                 |
  \\      /  F ield         | OpenFOAM: The Open Source CFD Toolbox
   \\    /   O peration     | Website:  https://openfoam.org
    \\  /    A nd           | Version:  7
     \\/     M anipulation  |
\*---------------------------------------------------------------------------*/
FoamFile
{
    version     2.0;
    format      ascii;
    class       volVectorField;
    location    "0.15";
    object      U;
}
// * * * * * * * * * * * * * * * * * * * * * * * * * * * * * * * * * * * * * //

dimensions      [0 1 -1 0 0 0 0];

internalField   nonuniform List<vector> 
6400
(
(7.23321e-06 -7.22863e-06 0)
(2.97221e-05 -1.4393e-05 0)
(5.91073e-05 -1.41209e-05 0)
(8.03102e-05 -9.6886e-06 0)
(8.50741e-05 -3.39159e-06 0)
(7.01582e-05 3.56726e-06 0)
(3.44424e-05 1.05746e-05 0)
(-2.20393e-05 1.73102e-05 0)
(-9.85352e-05 2.36137e-05 0)
(-0.000193857 2.94054e-05 0)
(-0.000306564 3.46467e-05 0)
(-0.000435065 3.9323e-05 0)
(-0.00057768 4.34327e-05 0)
(-0.000732694 4.69809e-05 0)
(-0.000898382 4.99805e-05 0)
(-0.00107303 5.24451e-05 0)
(-0.00125495 5.43937e-05 0)
(-0.0014425 5.58448e-05 0)
(-0.00163407 5.6817e-05 0)
(-0.00182812 5.73309e-05 0)
(-0.00202315 5.74068e-05 0)
(-0.00221773 5.70654e-05 0)
(-0.00241049 5.63274e-05 0)
(-0.00260011 5.52133e-05 0)
(-0.00278537 5.37434e-05 0)
(-0.00296507 5.19374e-05 0)
(-0.00313811 4.98151e-05 0)
(-0.00330345 4.73973e-05 0)
(-0.0034601 4.47037e-05 0)
(-0.00360716 4.17547e-05 0)
(-0.00374377 3.85701e-05 0)
(-0.00386917 3.51695e-05 0)
(-0.00398266 3.15732e-05 0)
(-0.00408358 2.78008e-05 0)
(-0.00417138 2.38725e-05 0)
(-0.00424556 1.98094e-05 0)
(-0.00430569 1.5632e-05 0)
(-0.00435142 1.13609e-05 0)
(-0.00438247 7.01772e-06 0)
(-0.00439863 2.62415e-06 0)
(-0.00439979 -1.79786e-06 0)
(-0.00438588 -6.22514e-06 0)
(-0.00435693 -1.0634e-05 0)
(-0.00431307 -1.50011e-05 0)
(-0.00425447 -1.93028e-05 0)
(-0.00418141 -2.35142e-05 0)
(-0.00409425 -2.76101e-05 0)
(-0.00399345 -3.15654e-05 0)
(-0.00387952 -3.53544e-05 0)
(-0.00375309 -3.89506e-05 0)
(-0.00361487 -4.2328e-05 0)
(-0.00346565 -4.54607e-05 0)
(-0.00330631 -4.83228e-05 0)
(-0.00313782 -5.08886e-05 0)
(-0.00296122 -5.31326e-05 0)
(-0.00277766 -5.50295e-05 0)
(-0.00258834 -5.65548e-05 0)
(-0.00239457 -5.76844e-05 0)
(-0.0021977 -5.83957e-05 0)
(-0.00199918 -5.86672e-05 0)
(-0.00180049 -5.84785e-05 0)
(-0.00160321 -5.78106e-05 0)
(-0.00140894 -5.66461e-05 0)
(-0.00121934 -5.49701e-05 0)
(-0.0010361 -5.2769e-05 0)
(-0.000860931 -5.00316e-05 0)
(-0.000695568 -4.67492e-05 0)
(-0.000541733 -4.29171e-05 0)
(-0.000401134 -3.85354e-05 0)
(-0.000275432 -3.36105e-05 0)
(-0.000166208 -2.81572e-05 0)
(-7.4921e-05 -2.22047e-05 0)
(-2.83644e-06 -1.58069e-05 0)
(4.90782e-05 -9.06106e-06 0)
(8.0329e-05 -2.14605e-06 0)
(9.11798e-05 4.60433e-06 0)
(8.30722e-05 1.05669e-05 0)
(5.9563e-05 1.45481e-05 0)
(2.91443e-05 1.43084e-05 0)
(6.85356e-06 6.85144e-06 0)
(1.44108e-05 -2.97139e-05 0)
(5.13673e-05 -5.12915e-05 0)
(8.94385e-05 -4.3859e-05 0)
(0.000102994 -1.89204e-05 0)
(7.63645e-05 1.54291e-05 0)
(1.71447e-06 5.41696e-05 0)
(-0.000124643 9.42288e-05 0)
(-0.000303621 0.000133719 0)
(-0.000534176 0.000171487 0)
(-0.000813948 0.000206817 0)
(-0.00113971 0.000239273 0)
(-0.00150764 0.000268593 0)
(-0.00191359 0.000294635 0)
(-0.00235315 0.000317329 0)
(-0.00282181 0.000336666 0)
(-0.00331502 0.000352673 0)
(-0.00382825 0.000365408 0)
(-0.00435703 0.000374946 0)
(-0.00489695 0.00038138 0)
(-0.00544376 0.000384813 0)
(-0.0059933 0.000385357 0)
(-0.00654159 0.000383128 0)
(-0.00708479 0.00037825 0)
(-0.00761922 0.000370848 0)
(-0.00814139 0.00036105 0)
(-0.00864796 0.000348984 0)
(-0.0091358 0.000334781 0)
(-0.00960195 0.000318573 0)
(-0.0100436 0.000300492 0)
(-0.0104583 0.000280673 0)
(-0.0108435 0.000259249 0)
(-0.011197 0.000236357 0)
(-0.0115169 0.000212134 0)
(-0.0118013 0.000186716 0)
(-0.0120487 0.000160243 0)
(-0.0122576 0.000132856 0)
(-0.0124268 0.000104699 0)
(-0.0125554 7.59168e-05 0)
(-0.0126425 4.66559e-05 0)
(-0.0126875 1.7067e-05 0)
(-0.0126903 -1.26969e-05 0)
(-0.0126505 -4.24795e-05 0)
(-0.0125683 -7.2122e-05 0)
(-0.012444 -0.000101463 0)
(-0.0122782 -0.000130338 0)
(-0.0120718 -0.000158581 0)
(-0.0118256 -0.000186025 0)
(-0.011541 -0.000212497 0)
(-0.0112196 -0.000237828 0)
(-0.0108631 -0.000261843 0)
(-0.0104734 -0.000284369 0)
(-0.010053 -0.000305236 0)
(-0.00960412 -0.000324272 0)
(-0.00912966 -0.000341311 0)
(-0.00863254 -0.000356186 0)
(-0.00811595 -0.000368738 0)
(-0.0075833 -0.00037881 0)
(-0.00703821 -0.000386255 0)
(-0.00648449 -0.000390931 0)
(-0.00592614 -0.000392709 0)
(-0.00536733 -0.000391469 0)
(-0.00481236 -0.000387104 0)
(-0.00426568 -0.000379521 0)
(-0.00373181 -0.000368647 0)
(-0.00321536 -0.000354426 0)
(-0.00272098 -0.000336827 0)
(-0.00225329 -0.000315845 0)
(-0.00181688 -0.000291514 0)
(-0.00141618 -0.000263912 0)
(-0.00105545 -0.000233178 0)
(-0.000738601 -0.000199532 0)
(-0.000469099 -0.000163314 0)
(-0.000249731 -0.00012504 0)
(-8.23238e-05 -8.54993e-05 0)
(3.26947e-05 -4.59171e-05 0)
(9.69081e-05 -8.22671e-06 0)
(0.000114688 2.44932e-05 0)
(9.44841e-05 4.73034e-05 0)
(5.24312e-05 5.2384e-05 0)
(1.43044e-05 2.91191e-05 0)
(1.42406e-05 -5.92061e-05 0)
(4.43668e-05 -8.94905e-05 0)
(6.08849e-05 -6.0052e-05 0)
(3.5082e-05 7.04301e-06 0)
(-5.13551e-05 9.64151e-05 0)
(-0.000208618 0.000197437 0)
(-0.000442026 0.000302891 0)
(-0.000753277 0.000407955 0)
(-0.00114134 0.000509412 0)
(-0.00160321 0.000605125 0)
(-0.00213449 0.000693681 0)
(-0.00272979 0.000774166 0)
(-0.00338307 0.000846009 0)
(-0.00408783 0.000908893 0)
(-0.00483733 0.000962669 0)
(-0.00562467 0.00100732 0)
(-0.00644292 0.00104293 0)
(-0.00728519 0.00106966 0)
(-0.00814468 0.0010877 0)
(-0.00901475 0.00109732 0)
(-0.00988891 0.00109879 0)
(-0.0107609 0.00109242 0)
(-0.0116247 0.00107853 0)
(-0.0124744 0.00105746 0)
(-0.0133046 0.00102956 0)
(-0.01411 0.000995201 0)
(-0.0148856 0.000954734 0)
(-0.0156267 0.000908533 0)
(-0.0163288 0.000856973 0)
(-0.016988 0.000800434 0)
(-0.0176002 0.000739301 0)
(-0.0181621 0.000673961 0)
(-0.0186705 0.000604807 0)
(-0.0191224 0.000532235 0)
(-0.0195154 0.000456646 0)
(-0.0198471 0.000378448 0)
(-0.0201157 0.000298053 0)
(-0.0203196 0.000215879 0)
(-0.0204575 0.000132352 0)
(-0.0205286 4.79055e-05 0)
(-0.0205323 -3.70205e-05 0)
(-0.0204684 -0.000121978 0)
(-0.0203372 -0.00020651 0)
(-0.0201391 -0.000290155 0)
(-0.019875 -0.000372443 0)
(-0.0195464 -0.000452898 0)
(-0.0191547 -0.00053104 0)
(-0.0187021 -0.000606385 0)
(-0.018191 -0.000678445 0)
(-0.0176242 -0.000746729 0)
(-0.017005 -0.00081075 0)
(-0.0163368 -0.000870024 0)
(-0.0156238 -0.000924071 0)
(-0.0148702 -0.000972421 0)
(-0.0140806 -0.00101461 0)
(-0.0132603 -0.0010502 0)
(-0.0124144 -0.00107875 0)
(-0.0115488 -0.00109986 0)
(-0.0106695 -0.00111316 0)
(-0.00978262 -0.00111827 0)
(-0.00889481 -0.0011149 0)
(-0.00801276 -0.00110276 0)
(-0.00714339 -0.00108163 0)
(-0.00629371 -0.00105134 0)
(-0.00547086 -0.00101176 0)
(-0.00468194 -0.000962883 0)
(-0.00393403 -0.000904756 0)
(-0.00323405 -0.000837558 0)
(-0.00258865 -0.000761611 0)
(-0.00200409 -0.000677425 0)
(-0.00148606 -0.000585764 0)
(-0.00103944 -0.00048774 0)
(-0.000667987 -0.000384957 0)
(-0.000373961 -0.000279729 0)
(-0.000157534 -0.000175414 0)
(-1.60892e-05 -7.69191e-05 0)
(5.66027e-05 8.57426e-06 0)
(7.15418e-05 7.06602e-05 0)
(4.77735e-05 9.45464e-05 0)
(1.46266e-05 5.95968e-05 0)
(1.00126e-05 -8.08737e-05 0)
(2.02482e-05 -0.000103813 0)
(-4.56002e-06 -3.46109e-05 0)
(-9.10944e-05 9.403e-05 0)
(-0.000257449 0.000259409 0)
(-0.000514542 0.00044502 0)
(-0.000868265 0.000639029 0)
(-0.00132057 0.000833101 0)
(-0.0018703 0.0010214 0)
(-0.00251393 0.00119985 0)
(-0.00324619 0.00136564 0)
(-0.00406048 0.00151688 0)
(-0.00494931 0.00165231 0)
(-0.00590449 0.00177116 0)
(-0.00691747 0.00187301 0)
(-0.00797939 0.00195773 0)
(-0.00908132 0.00202535 0)
(-0.0102143 0.00207611 0)
(-0.0113695 0.00211031 0)
(-0.0125381 0.0021284 0)
(-0.0137117 0.00213086 0)
(-0.0148819 0.00211824 0)
(-0.0160408 0.00209114 0)
(-0.0171806 0.00205018 0)
(-0.018294 0.00199603 0)
(-0.019374 0.00192935 0)
(-0.0204138 0.00185085 0)
(-0.0214074 0.00176124 0)
(-0.0223486 0.00166123 0)
(-0.0232321 0.00155156 0)
(-0.0240526 0.00143298 0)
(-0.0248056 0.00130622 0)
(-0.0254868 0.00117206 0)
(-0.0260922 0.00103127 0)
(-0.0266185 0.000884627 0)
(-0.0270626 0.000732928 0)
(-0.0274221 0.000576975 0)
(-0.0276948 0.000417587 0)
(-0.0278791 0.000255594 0)
(-0.0279737 9.18401e-05 0)
(-0.0279781 -7.28171e-05 0)
(-0.0278918 -0.000237505 0)
(-0.0277153 -0.000401336 0)
(-0.0274493 -0.000563413 0)
(-0.0270949 -0.000722824 0)
(-0.0266539 -0.000878649 0)
(-0.0261287 -0.00102996 0)
(-0.0255219 -0.00117581 0)
(-0.0248368 -0.00131527 0)
(-0.0240772 -0.00144739 0)
(-0.0232474 -0.00157123 0)
(-0.0223522 -0.00168587 0)
(-0.0213969 -0.00179038 0)
(-0.0203873 -0.00188387 0)
(-0.0193296 -0.00196546 0)
(-0.0182306 -0.0020343 0)
(-0.0170974 -0.00208959 0)
(-0.0159375 -0.00213054 0)
(-0.014759 -0.00215646 0)
(-0.0135701 -0.0021667 0)
(-0.0123794 -0.00216067 0)
(-0.0111957 -0.00213789 0)
(-0.0100282 -0.00209795 0)
(-0.00888597 -0.00204059 0)
(-0.00777835 -0.00196566 0)
(-0.00671455 -0.00187316 0)
(-0.00570368 -0.0017633 0)
(-0.00475462 -0.00163653 0)
(-0.00387582 -0.00149358 0)
(-0.00307516 -0.00133556 0)
(-0.0023597 -0.00116407 0)
(-0.00173542 -0.000981362 0)
(-0.00120683 -0.000790581 0)
(-0.000776524 -0.00059609 0)
(-0.000444644 -0.000403955 0)
(-0.000208139 -0.000222627 0)
(-6.00254e-05 -6.38696e-05 0)
(1.16147e-05 5.61727e-05 0)
(2.59339e-05 0.000115623 0)
(1.08578e-05 8.3532e-05 0)
(3.98872e-06 -8.66453e-05 0)
(-1.30919e-05 -7.88575e-05 0)
(-9.20517e-05 5.05331e-05 0)
(-0.000253902 0.000259934 0)
(-0.000514438 0.00052003 0)
(-0.000884078 0.000808825 0)
(-0.00136839 0.00110996 0)
(-0.00196897 0.00141147 0)
(-0.00268426 0.00170468 0)
(-0.00351015 0.0019833 0)
(-0.00444055 0.00224286 0)
(-0.00546787 0.00248022 0)
(-0.00658338 0.00269323 0)
(-0.00777754 0.00288049 0)
(-0.00904024 0.0030412 0)
(-0.010361 0.00317498 0)
(-0.0117292 0.00328178 0)
(-0.0131341 0.00336184 0)
(-0.0145651 0.00341559 0)
(-0.0160116 0.00344363 0)
(-0.0174632 0.00344668 0)
(-0.01891 0.00342559 0)
(-0.0203422 0.00338125 0)
(-0.0217504 0.00331465 0)
(-0.0231256 0.0032268 0)
(-0.0244592 0.00311878 0)
(-0.0257431 0.0029917 0)
(-0.0269695 0.00284667 0)
(-0.0281313 0.00268487 0)
(-0.0292215 0.00250746 0)
(-0.030234 0.00231563 0)
(-0.031163 0.00211062 0)
(-0.0320032 0.00189364 0)
(-0.0327499 0.00166594 0)
(-0.0333988 0.0014288 0)
(-0.0339463 0.00118349 0)
(-0.0343893 0.000931333 0)
(-0.0347252 0.000673644 0)
(-0.0349519 0.000411771 0)
(-0.0350681 0.000147083 0)
(-0.0350728 -0.000119027 0)
(-0.0349659 -0.000385147 0)
(-0.0347476 -0.000649844 0)
(-0.0344188 -0.000911664 0)
(-0.0339812 -0.00116914 0)
(-0.0334368 -0.00142077 0)
(-0.0327885 -0.00166508 0)
(-0.0320397 -0.00190054 0)
(-0.0311944 -0.00212564 0)
(-0.0302573 -0.00233888 0)
(-0.0292336 -0.00253875 0)
(-0.0281294 -0.00272375 0)
(-0.0269509 -0.00289243 0)
(-0.0257054 -0.00304335 0)
(-0.0244006 -0.00317511 0)
(-0.0230445 -0.00328638 0)
(-0.021646 -0.00337586 0)
(-0.0202143 -0.00344237 0)
(-0.0187591 -0.00348479 0)
(-0.0172904 -0.00350212 0)
(-0.0158187 -0.00349346 0)
(-0.0143546 -0.0034581 0)
(-0.0129092 -0.00339545 0)
(-0.0114936 -0.00330514 0)
(-0.0101187 -0.00318701 0)
(-0.00879575 -0.00304119 0)
(-0.00753553 -0.00286811 0)
(-0.00634855 -0.00266859 0)
(-0.00524479 -0.00244395 0)
(-0.00423347 -0.0021961 0)
(-0.00332281 -0.0019277 0)
(-0.00251973 -0.00164242 0)
(-0.00182943 -0.00134523 0)
(-0.00125499 -0.00104284 0)
(-0.000796837 -0.00074426 0)
(-0.000452101 -0.000461616 0)
(-0.000213958 -0.000211178 0)
(-7.07833e-05 -1.45061e-05 0)
(-5.35282e-06 0.000100041 0)
(5.22525e-06 9.27347e-05 0)
(-2.67983e-06 -7.33347e-05 0)
(-5.09174e-05 -6.71977e-06 0)
(-0.000191712 0.000205879 0)
(-0.000438249 0.000516259 0)
(-0.000802602 0.000889583 0)
(-0.00129375 0.001299 0)
(-0.00191617 0.00172398 0)
(-0.00267059 0.00214907 0)
(-0.00355467 0.00256269 0)
(-0.00456353 0.00295627 0)
(-0.00569025 0.0033235 0)
(-0.00692626 0.00365985 0)
(-0.00826176 0.00396212 0)
(-0.009686 0.00422816 0)
(-0.0111876 0.00445663 0)
(-0.0127546 0.00464684 0)
(-0.0143749 0.0047986 0)
(-0.0160363 0.0049121 0)
(-0.0177266 0.00498786 0)
(-0.0194336 0.00502665 0)
(-0.0211455 0.00502943 0)
(-0.0228506 0.00499734 0)
(-0.0245377 0.00493164 0)
(-0.0261958 0.0048337 0)
(-0.0278145 0.00470496 0)
(-0.0293838 0.00454694 0)
(-0.0308941 0.00436123 0)
(-0.0323366 0.00414945 0)
(-0.0337027 0.00391327 0)
(-0.0349845 0.00365438 0)
(-0.0361747 0.00337453 0)
(-0.0372666 0.00307547 0)
(-0.0382539 0.002759 0)
(-0.0391313 0.00242694 0)
(-0.0398936 0.00208115 0)
(-0.0405367 0.00172348 0)
(-0.0410568 0.00135586 0)
(-0.041451 0.000980215 0)
(-0.0417169 0.000598514 0)
(-0.0418529 0.000212755 0)
(-0.041858 -0.000175032 0)
(-0.0417318 -0.000562787 0)
(-0.0414748 -0.000948422 0)
(-0.0410881 -0.00132982 0)
(-0.0405735 -0.00170484 0)
(-0.0399336 -0.00207133 0)
(-0.0391716 -0.0024271 0)
(-0.0382915 -0.00276996 0)
(-0.0372981 -0.00309773 0)
(-0.0361968 -0.00340822 0)
(-0.0349938 -0.00369925 0)
(-0.033696 -0.00396868 0)
(-0.0323109 -0.00421439 0)
(-0.0308469 -0.00443432 0)
(-0.0293128 -0.00462648 0)
(-0.0277182 -0.00478894 0)
(-0.0260733 -0.00491988 0)
(-0.0243888 -0.00501759 0)
(-0.0226758 -0.00508052 0)
(-0.020946 -0.00510724 0)
(-0.0192115 -0.00509655 0)
(-0.0174847 -0.00504744 0)
(-0.0157781 -0.00495916 0)
(-0.0141044 -0.00483126 0)
(-0.0124765 -0.0046636 0)
(-0.0109069 -0.00445648 0)
(-0.00940795 -0.00421064 0)
(-0.00799162 -0.00392741 0)
(-0.00666919 -0.0036088 0)
(-0.00545107 -0.00325767 0)
(-0.00434653 -0.00287793 0)
(-0.00336339 -0.00247485 0)
(-0.00250764 -0.00205539 0)
(-0.00178303 -0.00162872 0)
(-0.00119063 -0.00120686 0)
(-0.000728326 -0.000805497 0)
(-0.000390195 -0.000445112 0)
(-0.000165832 -0.000152101 0)
(-4.13637e-05 3.96784e-05 0)
(-1.11679e-06 8.38655e-05 0)
(-9.43878e-06 -3.97059e-05 0)
(-9.04761e-05 0.000116762 0)
(-0.00029717 0.000437653 0)
(-0.000633873 0.000870285 0)
(-0.00110807 0.0013755 0)
(-0.00172661 0.0019224 0)
(-0.0024923 0.00248677 0)
(-0.0034045 0.00304993 0)
(-0.00445974 0.00359756 0)
(-0.00565217 0.00411881 0)
(-0.00697389 0.0046055 0)
(-0.00841536 0.00505162 0)
(-0.00996572 0.00545284 0)
(-0.0116131 0.00580614 0)
(-0.013345 0.00610961 0)
(-0.0151481 0.00636215 0)
(-0.0170091 0.00656334 0)
(-0.0189145 0.00671332 0)
(-0.0208505 0.00681267 0)
(-0.0228038 0.0068623 0)
(-0.0247609 0.00686343 0)
(-0.026709 0.00681751 0)
(-0.0286353 0.00672618 0)
(-0.0305277 0.00659122 0)
(-0.0323743 0.00641456 0)
(-0.0341639 0.00619822 0)
(-0.0358858 0.00594431 0)
(-0.0375298 0.00565502 0)
(-0.0390865 0.00533259 0)
(-0.0405468 0.00497931 0)
(-0.0419025 0.00459755 0)
(-0.0431459 0.00418969 0)
(-0.0442702 0.00375817 0)
(-0.0452689 0.00330547 0)
(-0.0461367 0.00283409 0)
(-0.0468686 0.00234661 0)
(-0.0474604 0.00184561 0)
(-0.0479088 0.00133374 0)
(-0.0482112 0.000813671 0)
(-0.0483657 0.00028813 0)
(-0.0483711 -0.00024012 0)
(-0.0482272 -0.000768274 0)
(-0.0479344 -0.00129349 0)
(-0.047494 -0.0018129 0)
(-0.046908 -0.00232358 0)
(-0.0461794 -0.00282261 0)
(-0.0453119 -0.00330703 0)
(-0.04431 -0.00377388 0)
(-0.043179 -0.00422019 0)
(-0.0419252 -0.004643 0)
(-0.0405554 -0.00503938 0)
(-0.0390775 -0.00540642 0)
(-0.0375001 -0.0057413 0)
(-0.0358324 -0.00604123 0)
(-0.0340845 -0.00630353 0)
(-0.0322671 -0.00652563 0)
(-0.0303917 -0.00670511 0)
(-0.0284703 -0.00683969 0)
(-0.0265154 -0.00692732 0)
(-0.0245401 -0.00696613 0)
(-0.022558 -0.00695456 0)
(-0.0205827 -0.00689132 0)
(-0.0186285 -0.00677548 0)
(-0.0167094 -0.00660652 0)
(-0.0148397 -0.00638439 0)
(-0.0130333 -0.00610958 0)
(-0.0113039 -0.00578322 0)
(-0.00966476 -0.00540722 0)
(-0.00812837 -0.00498439 0)
(-0.00670623 -0.00451866 0)
(-0.00540864 -0.00401529 0)
(-0.00424438 -0.00348125 0)
(-0.00322034 -0.00292554 0)
(-0.00234119 -0.00235981 0)
(-0.001609 -0.00179896 0)
(-0.00102289 -0.00126203 0)
(-0.000578435 -0.000773236 0)
(-0.000267125 -0.000363106 0)
(-7.93101e-05 -6.98594e-05 0)
(-7.59551e-06 5.55608e-05 0)
(-1.60278e-05 1.44966e-05 0)
(-0.000130213 0.000293406 0)
(-0.000404465 0.000749105 0)
(-0.000834042 0.00132617 0)
(-0.0014214 0.00198228 0)
(-0.00217081 0.00268329 0)
(-0.00308295 0.00340188 0)
(-0.00415541 0.00411653 0)
(-0.00538332 0.00481041 0)
(-0.0067596 0.00547048 0)
(-0.00827523 0.00608676 0)
(-0.00991961 0.00665175 0)
(-0.0116808 0.00715995 0)
(-0.0135459 0.00760745 0)
(-0.0155012 0.00799168 0)
(-0.0175324 0.0083111 0)
(-0.0196249 0.00856504 0)
(-0.0217639 0.00875354 0)
(-0.0239346 0.0088772 0)
(-0.0261222 0.00893711 0)
(-0.0283122 0.00893471 0)
(-0.0304905 0.00887178 0)
(-0.032643 0.00875037 0)
(-0.0347564 0.00857271 0)
(-0.0368178 0.00834122 0)
(-0.0388147 0.00805849 0)
(-0.0407354 0.00772721 0)
(-0.0425687 0.00735016 0)
(-0.044304 0.00693024 0)
(-0.0459316 0.00647041 0)
(-0.0474423 0.00597369 0)
(-0.0488277 0.00544319 0)
(-0.05008 0.00488206 0)
(-0.0511925 0.0042935 0)
(-0.0521588 0.00368078 0)
(-0.0529737 0.0030472 0)
(-0.0536327 0.00239616 0)
(-0.0541319 0.00173106 0)
(-0.0544685 0.00105538 0)
(-0.0546404 0.000372666 0)
(-0.0546464 -0.000313508 0)
(-0.0544862 -0.000999505 0)
(-0.0541602 -0.00168164 0)
(-0.0536699 -0.0023562 0)
(-0.0530175 -0.0030194 0)
(-0.0522064 -0.00366747 0)
(-0.0512405 -0.00429657 0)
(-0.050125 -0.00490288 0)
(-0.0488656 -0.00548258 0)
(-0.0474693 -0.00603184 0)
(-0.0459437 -0.0065469 0)
(-0.0442973 -0.00702403 0)
(-0.0425397 -0.00745957 0)
(-0.040681 -0.00784997 0)
(-0.0387323 -0.00819179 0)
(-0.0367054 -0.00848175 0)
(-0.0346129 -0.00871677 0)
(-0.032468 -0.00889396 0)
(-0.0302844 -0.00901071 0)
(-0.0280766 -0.00906471 0)
(-0.0258591 -0.00905398 0)
(-0.0236473 -0.00897696 0)
(-0.0214564 -0.00883255 0)
(-0.0193019 -0.00862016 0)
(-0.0171993 -0.00833984 0)
(-0.0151638 -0.00799233 0)
(-0.0132104 -0.00757921 0)
(-0.0113535 -0.007103 0)
(-0.0096067 -0.0065674 0)
(-0.0079826 -0.00597745 0)
(-0.00649257 -0.00533983 0)
(-0.00514643 -0.00466319 0)
(-0.00395214 -0.0039586 0)
(-0.00291554 -0.00324007 0)
(-0.00204001 -0.00252519 0)
(-0.00132628 -0.00183602 0)
(-0.000771872 -0.00120001 0)
(-0.000370634 -0.000651029 0)
(-0.000117591 -0.000230591 0)
(-1.39358e-05 7.46784e-06 0)
(-2.23403e-05 8.89753e-05 0)
(-0.000169286 0.000523499 0)
(-0.000511225 0.00114139 0)
(-0.00103448 0.0018858 0)
(-0.00173636 0.00271221 0)
(-0.00261826 0.00358401 0)
(-0.00367844 0.00447136 0)
(-0.00491245 0.00535031 0)
(-0.00631372 0.00620179 0)
(-0.00787374 0.00701078 0)
(-0.00958223 0.00776558 0)
(-0.0114274 0.00845728 0)
(-0.0133962 0.00907922 0)
(-0.0154747 0.0096266 0)
(-0.0176479 0.0100962 0)
(-0.0199007 0.0104859 0)
(-0.0222172 0.0107949 0)
(-0.0245815 0.0110231 0)
(-0.0269778 0.0111711 0)
(-0.02939 0.0112401 0)
(-0.0318027 0.0112318 0)
(-0.0342005 0.0111483 0)
(-0.0365683 0.0109922 0)
(-0.0388917 0.010766 0)
(-0.0411567 0.0104729 0)
(-0.04335 0.0101159 0)
(-0.0454587 0.00969835 0)
(-0.0474708 0.00922373 0)
(-0.0493749 0.00869559 0)
(-0.0511602 0.00811764 0)
(-0.052817 0.00749364 0)
(-0.0543361 0.00682744 0)
(-0.055709 0.00612299 0)
(-0.0569285 0.00538428 0)
(-0.0579877 0.00461541 0)
(-0.0588808 0.00382051 0)
(-0.059603 0.00300381 0)
(-0.0601502 0.00216958 0)
(-0.0605192 0.00132219 0)
(-0.0607078 0.000466037 0)
(-0.0607146 -0.000394383 0)
(-0.0605394 -0.00125453 0)
(-0.0601826 -0.0021098 0)
(-0.0596459 -0.00295555 0)
(-0.0589316 -0.00378707 0)
(-0.0580433 -0.00459963 0)
(-0.0569855 -0.00538846 0)
(-0.0557635 -0.00614881 0)
(-0.0543838 -0.0068759 0)
(-0.0528537 -0.00756499 0)
(-0.0511816 -0.00821139 0)
(-0.0493767 -0.00881047 0)
(-0.0474492 -0.00935769 0)
(-0.0454103 -0.00984866 0)
(-0.0432719 -0.0102791 0)
(-0.0410468 -0.010645 0)
(-0.0387484 -0.0109426 0)
(-0.0363911 -0.0111683 0)
(-0.0339898 -0.0113188 0)
(-0.0315599 -0.0113915 0)
(-0.0291172 -0.0113839 0)
(-0.0266783 -0.0112942 0)
(-0.0242595 -0.011121 0)
(-0.0218776 -0.0108637 0)
(-0.0195491 -0.0105226 0)
(-0.0172906 -0.0100985 0)
(-0.0151182 -0.00959359 0)
(-0.0130473 -0.00901102 0)
(-0.0110927 -0.00835538 0)
(-0.00926825 -0.00763285 0)
(-0.0075863 -0.00685151 0)
(-0.00605787 -0.00602171 0)
(-0.00469216 -0.00515644 0)
(-0.00349638 -0.00427194 0)
(-0.0024755 -0.00338827 0)
(-0.00163218 -0.00253009 0)
(-0.000966159 -0.00172758 0)
(-0.000473927 -0.00101726 0)
(-0.000155328 -0.000442976 0)
(-2.00182e-05 -6.01865e-05 0)
(-2.83427e-05 0.000183155 0)
(-0.000207272 0.000806418 0)
(-0.000616094 0.00161431 0)
(-0.00123258 0.00254946 0)
(-0.00204895 0.00356598 0)
(-0.00306363 0.00462545 0)
(-0.00427225 0.00569605 0)
(-0.00566812 0.00675181 0)
(-0.00724276 0.00777173 0)
(-0.00898604 0.00873902 0)
(-0.0108863 0.00964046 0)
(-0.0129304 0.0104658 0)
(-0.0151041 0.0112073 0)
(-0.0173924 0.0118592 0)
(-0.0197792 0.0124177 0)
(-0.0222483 0.0128804 0)
(-0.0247828 0.0132459 0)
(-0.0273657 0.0135142 0)
(-0.0299801 0.0136858 0)
(-0.0326091 0.0137621 0)
(-0.035236 0.0137452 0)
(-0.0378445 0.0136374 0)
(-0.0404185 0.0134416 0)
(-0.0429428 0.0131612 0)
(-0.0454022 0.0127996 0)
(-0.0477826 0.0123605 0)
(-0.0500703 0.0118481 0)
(-0.0522524 0.0112663 0)
(-0.0543167 0.0106197 0)
(-0.0562518 0.00991257 0)
(-0.0580471 0.00914952 0)
(-0.0596929 0.00833524 0)
(-0.0611802 0.00747449 0)
(-0.062501 0.00657215 0)
(-0.0636483 0.00563317 0)
(-0.0646157 0.00466259 0)
(-0.0653979 0.00366554 0)
(-0.0659907 0.00264724 0)
(-0.0663907 0.00161297 0)
(-0.0665955 0.000568112 0)
(-0.0666036 -0.000481894 0)
(-0.0664147 -0.00153152 0)
(-0.0660294 -0.00257518 0)
(-0.0654493 -0.00360723 0)
(-0.0646771 -0.00462195 0)
(-0.0637165 -0.0056136 0)
(-0.0625722 -0.00657641 0)
(-0.0612501 -0.00750461 0)
(-0.0597569 -0.0083924 0)
(-0.0581006 -0.00923407 0)
(-0.0562901 -0.0100239 0)
(-0.0543352 -0.0107564 0)
(-0.0522468 -0.0114259 0)
(-0.0500368 -0.0120273 0)
(-0.047718 -0.0125554 0)
(-0.0453039 -0.0130053 0)
(-0.0428091 -0.0133725 0)
(-0.0402486 -0.0136526 0)
(-0.0376384 -0.013842 0)
(-0.0349951 -0.0139373 0)
(-0.0323354 -0.0139356 0)
(-0.029677 -0.0138348 0)
(-0.0270373 -0.0136333 0)
(-0.0244342 -0.0133306 0)
(-0.0218854 -0.0129268 0)
(-0.0194085 -0.0124233 0)
(-0.0170208 -0.0118226 0)
(-0.0147388 -0.0111285 0)
(-0.0125785 -0.0103465 0)
(-0.0105549 -0.00948394 0)
(-0.00868149 -0.00855024 0)
(-0.00697066 -0.00755734 0)
(-0.00543299 -0.00652008 0)
(-0.00407723 -0.0054567 0)
(-0.00291017 -0.00438946 0)
(-0.00193659 -0.00334528 0)
(-0.00115865 -0.00235656 0)
(-0.000575612 -0.00146183 0)
(-0.000192075 -0.000706539 0)
(-2.5803e-05 -0.000146881 0)
(-3.40379e-05 0.000296348 0)
(-0.000243992 0.00114104 0)
(-0.000718373 0.00216682 0)
(-0.00142688 0.00331641 0)
(-0.00235681 0.00454317 0)
(-0.00350361 0.00580742 0)
(-0.0048602 0.00707583 0)
(-0.00641748 0.0083208 0)
(-0.00816494 0.00951972 0)
(-0.0100907 0.0106543 0)
(-0.0121815 0.0117099 0)
(-0.0144228 0.0126752 0)
(-0.0167992 0.0135413 0)
(-0.0192944 0.0143018 0)
(-0.0218913 0.0149521 0)
(-0.0245724 0.0154895 0)
(-0.02732 0.0159124 0)
(-0.0301161 0.0162205 0)
(-0.0329426 0.0164145 0)
(-0.0357818 0.016496 0)
(-0.0386161 0.0164672 0)
(-0.041428 0.0163309 0)
(-0.0442009 0.0160905 0)
(-0.0469182 0.0157497 0)
(-0.0495644 0.0153128 0)
(-0.0521243 0.014784 0)
(-0.0545834 0.0141682 0)
(-0.0569281 0.0134702 0)
(-0.0591456 0.012695 0)
(-0.0612237 0.0118481 0)
(-0.0631513 0.0109347 0)
(-0.0649179 0.00996055 0)
(-0.0665143 0.00893115 0)
(-0.0679319 0.00785235 0)
(-0.0691631 0.00673003 0)
(-0.0702014 0.00557018 0)
(-0.0710412 0.00437891 0)
(-0.0716778 0.0031624 0)
(-0.0721078 0.00192695 0)
(-0.0723284 0.000678945 0)
(-0.0723384 -0.000575142 0)
(-0.0721372 -0.00182875 0)
(-0.0717254 -0.00307523 0)
(-0.0711048 -0.00430788 0)
(-0.0702782 -0.00551992 0)
(-0.0692495 -0.00670454 0)
(-0.0680237 -0.00785488 0)
(-0.0666069 -0.00896411 0)
(-0.0650064 -0.0100254 0)
(-0.0632304 -0.0110318 0)
(-0.0612884 -0.0119768 0)
(-0.0591907 -0.0128537 0)
(-0.056949 -0.013656 0)
(-0.0545757 -0.0143775 0)
(-0.0520842 -0.0150121 0)
(-0.049489 -0.015554 0)
(-0.0468054 -0.015998 0)
(-0.0440493 -0.0163389 0)
(-0.0412376 -0.0165724 0)
(-0.0383878 -0.0166946 0)
(-0.0355177 -0.0167021 0)
(-0.0326457 -0.0165924 0)
(-0.0297906 -0.0163638 0)
(-0.0269711 -0.0160157 0)
(-0.0242062 -0.0155483 0)
(-0.0215145 -0.0149632 0)
(-0.0189143 -0.0142633 0)
(-0.0164234 -0.0134533 0)
(-0.0140589 -0.0125394 0)
(-0.011837 -0.0115299 0)
(-0.0097727 -0.0104357 0)
(-0.00787961 -0.00927021 0)
(-0.0061699 -0.00804985 0)
(-0.00465404 -0.00679473 0)
(-0.00334078 -0.005529 0)
(-0.00223715 -0.00428152 0)
(-0.00134788 -0.00308647 0)
(-0.000674976 -0.00198391 0)
(-0.000227645 -0.00102029 0)
(-3.12908e-05 -0.000251971 0)
(-3.94476e-05 0.00042784 0)
(-0.000279417 0.001526 0)
(-0.000817778 0.00279741 0)
(-0.00161665 0.00418527 0)
(-0.00265867 0.00564262 0)
(-0.00393632 0.00712898 0)
(-0.00543981 0.0086099 0)
(-0.00715756 0.0100565 0)
(-0.0090769 0.0114449 0)
(-0.0111841 0.0127556 0)
(-0.0134641 0.0139726 0)
(-0.0159011 0.0150836 0)
(-0.0184782 0.0160789 0)
(-0.0211779 0.0169513 0)
(-0.0239819 0.0176958 0)
(-0.0268717 0.0183092 0)
(-0.0298285 0.0187896 0)
(-0.0328333 0.0191368 0)
(-0.0358671 0.0193516 0)
(-0.0389112 0.0194356 0)
(-0.0419471 0.0193914 0)
(-0.0449566 0.0192222 0)
(-0.0479221 0.0189319 0)
(-0.0508264 0.0185248 0)
(-0.0536529 0.0180056 0)
(-0.0563859 0.0173795 0)
(-0.0590101 0.0166519 0)
(-0.0615114 0.0158286 0)
(-0.0638761 0.0149153 0)
(-0.0660916 0.0139183 0)
(-0.0681461 0.0128438 0)
(-0.0700289 0.0116983 0)
(-0.07173 0.0104885 0)
(-0.0732404 0.00922097 0)
(-0.0745524 0.0079027 0)
(-0.0756589 0.00654066 0)
(-0.0765541 0.00514196 0)
(-0.0772332 0.00371383 0)
(-0.0776924 0.00226361 0)
(-0.0779289 0.000798755 0)
(-0.0779413 -0.000673175 0)
(-0.0777291 -0.00214453 0)
(-0.0772928 -0.00360756 0)
(-0.0766344 -0.00505444 0)
(-0.0757566 -0.00647727 0)
(-0.0746636 -0.00786812 0)
(-0.0733606 -0.009219 0)
(-0.0718541 -0.0105219 0)
(-0.0701514 -0.0117689 0)
(-0.0682615 -0.0129521 0)
(-0.0661939 -0.0140636 0)
(-0.0639598 -0.0150957 0)
(-0.0615711 -0.016041 0)
(-0.0590409 -0.0168921 0)
(-0.0563834 -0.0176421 0)
(-0.0536136 -0.0182842 0)
(-0.0507475 -0.0188122 0)
(-0.047802 -0.0192204 0)
(-0.0447947 -0.0195036 0)
(-0.0417439 -0.0196573 0)
(-0.0386685 -0.0196777 0)
(-0.0355878 -0.0195619 0)
(-0.0325215 -0.0193079 0)
(-0.0294894 -0.018915 0)
(-0.0265115 -0.0183836 0)
(-0.0236075 -0.0177153 0)
(-0.0207968 -0.0169137 0)
(-0.0180986 -0.0159838 0)
(-0.015531 -0.0149329 0)
(-0.0131116 -0.0137702 0)
(-0.0108568 -0.0125077 0)
(-0.00878173 -0.0111601 0)
(-0.0069002 -0.00974562 0)
(-0.00522454 -0.00828579 0)
(-0.00376558 -0.00680646 0)
(-0.0025327 -0.00533808 0)
(-0.00153318 -0.00391627 0)
(-0.00077175 -0.00258223 0)
(-0.000262008 -0.00138302 0)
(-3.65022e-05 -0.000374783 0)
(-4.46013e-05 0.000576942 0)
(-0.000313599 0.00195988 0)
(-0.000914294 0.00350436 0)
(-0.0018017 0.0051543 0)
(-0.00295403 0.00686274 0)
(-0.00436092 0.00858873 0)
(-0.00600988 0.010297 0)
(-0.0078868 0.0119579 0)
(-0.00997681 0.0135462 0)
(-0.0122642 0.0150415 0)
(-0.0147322 0.016427 0)
(-0.0173634 0.0176893 0)
(-0.0201395 0.0188181 0)
(-0.0230415 0.0198055 0)
(-0.0260503 0.020646 0)
(-0.029146 0.0213361 0)
(-0.0323087 0.0218739 0)
(-0.0355187 0.0222591 0)
(-0.0387558 0.0224925 0)
(-0.0420006 0.0225761 0)
(-0.0452336 0.0225126 0)
(-0.0484359 0.0223059 0)
(-0.0515889 0.0219603 0)
(-0.0546749 0.0214806 0)
(-0.0576766 0.0208723 0)
(-0.0605774 0.0201413 0)
(-0.0633616 0.0192937 0)
(-0.0660143 0.0183361 0)
(-0.0685213 0.0172753 0)
(-0.0708696 0.0161182 0)
(-0.0730468 0.0148721 0)
(-0.0750416 0.0135444 0)
(-0.0768438 0.0121427 0)
(-0.078444 0.0106748 0)
(-0.0798341 0.00914852 0)
(-0.0810067 0.00757193 0)
(-0.0819558 0.0059532 0)
(-0.0826763 0.00430064 0)
(-0.0831642 0.00262269 0)
(-0.0834168 0.000927923 0)
(-0.0834324 -0.000774989 0)
(-0.0832105 -0.00247725 0)
(-0.0827516 -0.00416995 0)
(-0.0820577 -0.00584412 0)
(-0.0811318 -0.00749067 0)
(-0.079978 -0.00910049 0)
(-0.0786017 -0.0106644 0)
(-0.0770096 -0.0121733 0)
(-0.0752096 -0.013618 0)
(-0.0732105 -0.0149894 0)
(-0.0710227 -0.0162785 0)
(-0.0686574 -0.0174766 0)
(-0.0661272 -0.0185749 0)
(-0.0634456 -0.0195652 0)
(-0.0606275 -0.0204395 0)
(-0.0576885 -0.0211899 0)
(-0.0546452 -0.0218096 0)
(-0.0515153 -0.0222917 0)
(-0.0483172 -0.0226305 0)
(-0.0450699 -0.0228208 0)
(-0.0417932 -0.0228582 0)
(-0.0385074 -0.0227394 0)
(-0.0352331 -0.0224623 0)
(-0.0319911 -0.0220257 0)
(-0.0288024 -0.0214303 0)
(-0.025688 -0.0206779 0)
(-0.0226683 -0.0197722 0)
(-0.0197637 -0.0187191 0)
(-0.0169938 -0.0175263 0)
(-0.0143774 -0.0162042 0)
(-0.0119325 -0.0147657 0)
(-0.00967571 -0.0132268 0)
(-0.00762274 -0.011607 0)
(-0.00578783 -0.00992932 0)
(-0.00418393 -0.008221 0)
(-0.00282285 -0.00651383 0)
(-0.0017144 -0.0048446 0)
(-0.000865952 -0.00325532 0)
(-0.000295226 -0.00179343 0)
(-4.14678e-05 -0.000514673 0)
(-4.9531e-05 0.000743016 0)
(-0.000346641 0.00244128 0)
(-0.00100807 0.00428591 0)
(-0.00198215 0.00622165 0)
(-0.00324291 0.00820174 0)
(-0.00477727 0.010185 0)
(-0.00657008 0.0121358 0)
(-0.00860471 0.0140234 0)
(-0.010864 0.0158223 0)
(-0.0133303 0.0175109 0)
(-0.015985 0.0190718 0)
(-0.018809 0.0204909 0)
(-0.0217825 0.0217571 0)
(-0.0248853 0.0228622 0)
(-0.0280967 0.0238003 0)
(-0.031396 0.0245677 0)
(-0.0347622 0.0251623 0)
(-0.0381744 0.025584 0)
(-0.0416117 0.0258336 0)
(-0.0450537 0.0259134 0)
(-0.0484801 0.0258267 0)
(-0.0518711 0.0255776 0)
(-0.0552077 0.025171 0)
(-0.0584712 0.0246125 0)
(-0.0616436 0.0239081 0)
(-0.064708 0.0230646 0)
(-0.0676478 0.0220889 0)
(-0.0704478 0.0209883 0)
(-0.0730931 0.0197706 0)
(-0.0755703 0.0184437 0)
(-0.0778665 0.0170158 0)
(-0.0799702 0.0154954 0)
(-0.0818705 0.0138909 0)
(-0.083558 0.0122113 0)
(-0.085024 0.0104654 0)
(-0.0862611 0.00866237 0)
(-0.0872629 0.00681153 0)
(-0.0880241 0.00492228 0)
(-0.0885407 0.00300419 0)
(-0.0888097 0.00106697 0)
(-0.0888293 -0.000879517 0)
(-0.088599 -0.00282531 0)
(-0.0881194 -0.0047603 0)
(-0.0873924 -0.00667431 0)
(-0.086421 -0.00855705 0)
(-0.0852095 -0.0103982 0)
(-0.0837635 -0.0121873 0)
(-0.0820898 -0.0139141 0)
(-0.0801964 -0.0155681 0)
(-0.0780926 -0.017139 0)
(-0.0757889 -0.0186168 0)
(-0.0732971 -0.0199913 0)