/*--------------------------------*- C++ -*----------------------------------*\
  =========                 |
  \\      /  F ield         | OpenFOAM: The Open Source CFD Toolbox
   \\    /   O peration     | Website:  https://openfoam.org
    \\  /    A nd           | Version:  7
     \\/     M anipulation  |
\*---------------------------------------------------------------------------*/
FoamFile
{
    version     2.0;
    format      ascii;
    class       volScalarField;
    location    "0.3125";
    object      p;
}
// * * * * * * * * * * * * * * * * * * * * * * * * * * * * * * * * * * * * * //

dimensions      [0 2 -2 0 0 0 0];

internalField   nonuniform List<scalar> 
25600
(
2.58484e-06
0.000116104
0.000144899
3.639e-05
-0.000217271
-0.000612005
-0.00113667
-0.00177681
-0.0025171
-0.00334225
-0.00423763
-0.00518968
-0.0061858
-0.00721443
-0.00826481
-0.00932709
-0.0103923
-0.0114521
-0.012499
-0.013526
-0.0145268
-0.0154955
-0.0164271
-0.0173166
-0.0181597
-0.0189525
-0.0196914
-0.0203732
-0.0209949
-0.021554
-0.0220483
-0.0224756
-0.0228343
-0.0231229
-0.0233401
-0.0234849
-0.0235563
-0.0235538
-0.0234768
-0.0233251
-0.0230985
-0.0227971
-0.0224211
-0.0219708
-0.0214466
-0.0208492
-0.0201792
-0.0194375
-0.0186251
-0.0177429
-0.0167922
-0.0157742
-0.0146902
-0.0135416
-0.0123301
-0.0110571
-0.00972433
-0.00833358
-0.00688664
-0.00538542
-0.00383189
-0.00222807
-0.000576048
0.00112203
0.00286398
0.00464754
0.00647041
0.00833024
0.0102246
0.0121511
0.0141072
0.0160903
0.018098
0.0201276
0.0221765
0.024242
0.0263215
0.0284122
0.0305114
0.0326164
0.0347244
0.0368325
0.0389381
0.0410383
0.0431302
0.0452112
0.0472783
0.0493287
0.0513598
0.0533686
0.0553525
0.0573086
0.0592343
0.0611268
0.0629834
0.0648016
0.0665786
0.0683121
0.0699994
0.0716381
0.0732258
0.0747602
0.0762391
0.0776602
0.0790214
0.0803208
0.0815563
0.0827261
0.0838285
0.0848617
0.0858244
0.086715
0.0875323
0.0882751
0.0889423
0.0895332
0.0900468
0.0904827
0.0908404
0.0911197
0.0913205
0.0914428
0.0914871
0.0914536
0.0913433
0.0911569
0.0908956
0.0905608
0.0901541
0.0896773
0.0891327
0.0885226
0.0878496
0.087117
0.0863278
0.0854859
0.0845953
0.0836603
0.0826858
0.081677
0.0806396
0.0795797
0.078504
0.0774198
0.0763349
0.0752578
0.0741976
0.0731642
0.0721682
0.0712213
0.0703358
0.0695249
0.0688024
0.0681828
0.0676806
0.0673088
0.0670768
0.0669865
0.067027
0.0671424
-0.000107173
4.60276e-06
8.63792e-06
-0.000112411
-0.000354821
-0.00071665
-0.00119122
-0.00176815
-0.00243555
-0.00318104
-0.00399229
-0.00485752
-0.00576555
-0.00670585
-0.00766854
-0.00864449
-0.00962522
-0.0106029
-0.0115704
-0.0125209
-0.0134483
-0.0143471
-0.0152122
-0.0160388
-0.0168227
-0.0175599
-0.018247
-0.0188808
-0.0194582
-0.0199769
-0.0204344
-0.0208288
-0.0211582
-0.0214212
-0.0216165
-0.0217428
-0.0217994
-0.0217854
-0.0217005
-0.0215441
-0.0213163
-0.0210168
-0.0206458
-0.0202037
-0.0196907
-0.0191074
-0.0184545
-0.0177327
-0.0169428
-0.016086
-0.0151631
-0.0141755
-0.0131243
-0.012011
-0.0108369
-0.00960358
-0.00831265
-0.00696578
-0.00556472
-0.00411128
-0.00260735
-0.00105488
0.000544118
0.00218759
0.00387343
0.00559945
0.00736344
0.00916311
0.0109962
0.0128602
0.0147528
0.0166716
0.018614
0.0205776
0.0225598
0.0245581
0.0265698
0.0285923
0.030623
0.0326592
0.0346982
0.0367374
0.038774
0.0408054
0.0428287
0.0448414
0.0468406
0.0488237
0.050788
0.0527307
0.0546493
0.056541
0.0584033
0.0602335
0.062029
0.0637873
0.0655059
0.0671823
0.0688142
0.0703992
0.071935
0.0734194
0.0748502
0.0762253
0.0775427
0.0788005
0.0799969
0.0811299
0.0821981
0.0831999
0.0841338
0.0849984
0.0857926
0.0865153
0.0871656
0.0877425
0.0882456
0.0886741
0.0890279
0.0893067
0.0895104
0.0896393
0.0896936
0.089674
0.0895811
0.0894159
0.0891796
0.0888736
0.0884995
0.0880591
0.0875547
0.0869886
0.0863636
0.0856825
0.0849488
0.0841659
0.0833379
0.0824691
0.0815641
0.0806281
0.0796665
0.0786853
0.0776909
0.0766903
0.0756908
0.0747005
0.0737279
0.0727823
0.0718733
0.0710115
0.0702077
0.0694734
0.0688203
0.0682599
0.0678034
0.0674599
0.0672348
0.0671282
0.0671422
0.0672576
-0.000135713
5.33732e-07
4.66667e-06
-0.000117687
-0.000350018
-0.000689239
-0.00112993
-0.00166332
-0.00227928
-0.00296729
-0.00371674
-0.00451722
-0.00535863
-0.00623136
-0.00712631
-0.00803499
-0.00894944
-0.00986227
-0.0107666
-0.011656
-0.0125246
-0.013367
-0.0141782
-0.0149538
-0.0156894
-0.0163814
-0.0170261
-0.0176204
-0.0181615
-0.0186468
-0.019074
-0.0194411
-0.0197464
-0.0199881
-0.0201651
-0.0202761
-0.0203203
-0.0202968
-0.0202052
-0.0200449
-0.0198159
-0.019518
-0.0191513
-0.018716
-0.0182123
-0.0176409
-0.0170023
-0.0162971
-0.0155262
-0.0146905
-0.0137911
-0.0128289
-0.0118054
-0.0107216
-0.00957907
-0.00837917
-0.00712346
-0.00581355
-0.00445113
-0.00303795
-0.00157583
-6.66484e-05
0.00148765
0.00308509
0.0047236
0.0064011
0.00811541
0.00986435
0.0116456
0.013457
0.0152961
0.0171605
0.0190479
0.0209558
0.0228818
0.0248233
0.0267778
0.0287428
0.0307158
0.032694
0.0346749
0.036656
0.0386345
0.0406078
0.0425734
0.0445285
0.0464706
0.048397
0.050305
0.0521922
0.0540558
0.0558934
0.0577023
0.0594801
0.0612242
0.0629322
0.0646017
0.0662303
0.0678157
0.0693557
0.0708479
0.0722903
0.0736808
0.0750174
0.0762981
0.0775211
0.0786847
0.079787
0.0808267
0.0818021
0.0827119
0.0835549
0.0843298
0.0850358
0.0856718
0.0862373
0.0867314
0.0871539
0.0875044
0.0877827
0.0879889
0.0881231
0.0881859
0.0881776
0.0880992
0.0879515
0.0877358
0.0874535
0.0871062
0.0866958
0.0862244
0.0856944
0.0851085
0.0844696
0.083781
0.0830461
0.0822689
0.0814536
0.0806047
0.0797271
0.0788262
0.0779078
0.0769779
0.0760432
0.0751107
0.074188
0.0732831
0.0724046
0.0715614
0.0707631
0.0700194
0.0693405
0.0687364
0.0682171
0.0677919
0.0674684
0.067251
0.0671417
0.0671558
0.0672979
-2.8034e-05
0.000121568
0.00012715
4.84372e-06
-0.000221464
-0.000546858
-0.000965688
-0.00146965
-0.00204963
-0.00269624
-0.00340005
-0.00415164
-0.00494187
-0.0057619
-0.00660336
-0.00745834
-0.00831937
-0.00917945
-0.010032
-0.0108711
-0.0116909
-0.0124863
-0.0132525
-0.0139851
-0.0146801
-0.0153336
-0.0159423
-0.0165031
-0.0170131
-0.0174699
-0.0178711
-0.0182147
-0.018499
-0.0187225
-0.0188836
-0.0189814
-0.0190148
-0.0189831
-0.0188856
-0.0187221
-0.0184921
-0.0181956
-0.0178326
-0.0174032
-0.0169078
-0.0163468
-0.0157207
-0.0150301
-0.0142759
-0.0134589
-0.01258
-0.0116404
-0.0106411
-0.00958346
-0.00846872
-0.00729829
-0.00607366
-0.00479639
-0.00346809
-0.00209047
-0.000665281
0.000805651
0.00232045
0.00387719
0.00547387
0.00710845
0.00877885
0.0104829
0.0122184
0.0139832
0.015775
0.0175914
0.0194301
0.0212888
0.023165
0.0250563
0.0269603
0.0288745
0.0307963
0.0327233
0.0346529
0.0365826
0.0385098
0.0404319
0.0423465
0.0442508
0.0461425
0.0480188
0.0498773
0.0517154
0.0535306
0.0553204
0.0570824
0.058814
0.0605129
0.0621767
0.063803
0.0653895
0.066934
0.0684343
0.0698883
0.0712939
0.072649
0.0739518
0.0752003
0.0763928
0.0775276
0.0786031
0.0796177
0.08057
0.0814588
0.0822828
0.083041
0.0837323
0.0843559
0.0849113
0.0853977
0.0858148
0.0861623
0.0864402
0.0866485
0.0867874
0.0868573
0.0868588
0.0867928
0.0866601
0.0864621
0.0862001
0.0858757
0.0854909
0.0850477
0.0845484
0.0839957
0.0833925
0.082742
0.0820476
0.0813131
0.0805425
0.0797404
0.0789114
0.0780607
0.0771938
0.0763166
0.0754354
0.0745568
0.0736881
0.0728366
0.0720104
0.0712179
0.0704676
0.0697685
0.0691296
0.06856
0.0680687
0.0676639
0.0673532
0.0671412
0.0670321
0.0670492
0.0672081
0.000224387
0.00036356
0.000359709
0.000231606
5.18121e-06
-0.000313305
-0.000717841
-0.00120055
-0.00175308
-0.00236698
-0.00303371
-0.00374476
-0.00449178
-0.0052667
-0.00606183
-0.00686981
-0.00768367
-0.00849682
-0.00930309
-0.0100967
-0.0108723
-0.011625
-0.0123501
-0.0130434
-0.0137008
-0.0143189
-0.0148943
-0.0154239
-0.015905
-0.0163351
-0.016712
-0.0170337
-0.0172985
-0.0175047
-0.017651
-0.0177363
-0.0177597
-0.0177202
-0.0176173
-0.0174506
-0.0172198
-0.0169247
-0.0165653
-0.0161417
-0.0156542
-0.0151031
-0.0144891
-0.0138125
-0.0130743
-0.0122752
-0.0114161
-0.0104981
-0.0095222
-0.0084896
-0.00740157
-0.00625948
-0.00506473
-0.00381883
-0.00252335
-0.00117993
0.000209723
0.00164385
0.00312064
0.00463821
0.00619463
0.00778791
0.00941603
0.0110769
0.0127684
0.0144883
0.0162345
0.0180046
0.0197965
0.0216078
0.0234362
0.0252792
0.0271346
0.0289998
0.0308725
0.0327502
0.0346304
0.0365107
0.0383886
0.0402615
0.042127
0.0439826
0.0458257
0.047654
0.0494649
0.0512559
0.0530246
0.0547687
0.0564856
0.0581729
0.0598285
0.0614498
0.0630347
0.0645809
0.0660862
0.0675486
0.068966
0.0703363
0.0716576
0.072928
0.0741458
0.0753091
0.0764165
0.0774662
0.0784569
0.0793872
0.0802559
0.0810618
0.0818039
0.0824812
0.083093
0.0836387
0.0841177
0.0845297
0.0848744
0.0851517
0.0853618
0.085505
0.0855816
0.0855922
0.0855377
0.0854191
0.0852376
0.0849945
0.0846915
0.0843304
0.0839133
0.0834425
0.0829206
0.0823504
0.081735
0.0810778
0.0803824
0.0796528
0.0788933
0.0781083
0.077303
0.0764824
0.0756523
0.0748186
0.0739877
0.0731661
0.0723609
0.0715796
0.0708297
0.0701194
0.0694566
0.0688495
0.0683064
0.0678354
0.0674441
0.06714
0.0669283
0.0668144
0.0668244
0.0669773
0.000617723
0.000725161
0.000699462
0.00055761
0.000323803
4.93897e-06
-0.000392838
-0.000862122
-0.00139527
-0.00198457
-0.00262226
-0.00330061
-0.00401203
-0.00474915
-0.0055049
-0.00627245
-0.00704531
-0.00781732
-0.00858269
-0.00933596
-0.0100721
-0.0107863
-0.0114743
-0.0121318
-0.0127552
-0.013341
-0.0138858
-0.0143868
-0.0148413
-0.0152469
-0.0156013
-0.0159027
-0.0161493
-0.0163396
-0.0164722
-0.0165459
-0.0165599
-0.0165132
-0.0164054
-0.0162359
-0.0160043
-0.0157106
-0.0153547
-0.0149367
-0.0144568
-0.0139153
-0.0133127
-0.0126496
-0.0119267
-0.0111447
-0.0103045
-0.0094071
-0.00845349
-0.00744483
-0.00638234
-0.00526732
-0.00410113
-0.00288523
-0.00162113
-0.000310418
0.00104526
0.0024442
0.00388463
0.00536473
0.00688263
0.0084364
0.0100241
0.0116436
0.0132929
0.01497
0.0166725
0.0183985
0.0201455
0.0219115
0.023694
0.0254909
0.0272997
0.0291182
0.0309439
0.0327745
0.0346076
0.0364406
0.0382713
0.0400972
0.0419159
0.0437249
0.0455217
0.0473041
0.0490695
0.0508157
0.0525401
0.0542404
0.0559143
0.0575595
0.0591737
0.0607546
0.0623
0.0638079
0.0652759
0.0667022
0.0680847
0.0694215
0.0707106
0.0719503
0.0731388
0.0742745
0.0753557
0.0763811
0.0773491
0.0782585
0.0791081
0.0798968
0.0806236
0.0812876
0.0818882
0.0824247
0.0828965
0.0833035
0.0836454
0.0839222
0.0841339
0.0842809
0.0843636
0.0843827
0.0843388
0.0842332
0.0840668
0.0838411
0.0835578
0.0832185
0.0828255
0.0823808
0.0818871
0.081347
0.0807637
0.0801402
0.0794803
0.0787877
0.0780664
0.077321
0.0765561
0.0757766
0.0749881
0.0741959
0.0734062
0.0726252
0.0718594
0.0711157
0.0704011
0.069723
0.0690887
0.0685057
0.0679815
0.0675235
0.0671388
0.0668346
0.0666163
0.0664903
0.0664813
0.0666073
0.00114161
0.00120028
0.00114123
0.000977413
0.000728776
0.000402173
3.67817e-06
-0.000459826
-0.000981339
-0.00155382
-0.00217019
-0.00282344
-0.00350668
-0.00421317
-0.0049364
-0.00567005
-0.00640811
-0.00714483
-0.00787478
-0.00859287
-0.00929431
-0.00997462
-0.0106296
-0.0112553
-0.0118482
-0.0124048
-0.0129221
-0.0133972
-0.0138276
-0.0142109
-0.0145449
-0.0148278
-0.0150578
-0.0152335
-0.0153535
-0.0154167
-0.0154221
-0.0153689
-0.0152566
-0.0150845
-0.0148525
-0.0145602
-0.0142077
-0.0137951
-0.0133224
-0.01279
-0.0121984
-0.011548
-0.0108396
-0.0100738
-0.00925156
-0.00837369
-0.00744124
-0.00645528
-0.005417
-0.00432765
-0.00318854
-0.00200109
-0.000766758
0.000512928
0.00183637
0.00320191
0.00460785
0.00605239
0.00753374
0.00905001
0.0105993
0.0121796
0.0137889
0.0154253
0.0170864
0.0187704
0.0204749
0.0221979
0.023937
0.02569
0.0274548
0.0292289
0.03101
0.0327959
0.0345842
0.0363726
0.0381586
0.0399399
0.0417142
0.0434791
0.0452321
0.046971
0.0486935
0.0503971
0.0520795
0.0537385
0.0553718
0.0569771
0.0585522
0.060095
0.0616032
0.0630747
0.0645076
0.0658999
0.0672495
0.0685546
0.0698134
0.0710241
0.0721851
0.0732946
0.0743513
0.0753536
0.0763003
0.07719
0.0780216
0.0787941
0.0795065
0.0801581
0.080748
0.0812757
0.0817408
0.0821431
0.0824822
0.0827583
0.0829713
0.0831217
0.0832099
0.0832365
0.0832024
0.0831084
0.0829558
0.082746
0.0824805
0.0821611
0.0817898
0.0813687
0.0809004
0.0803875
0.0798328
0.0792396
0.0786113
0.0779515
0.0772642
0.0765535
0.075824
0.0750803
0.0743276
0.0735711
0.0728164
0.0720693
0.071336
0.0706228
0.0699362
0.0692828
0.0686695
0.0681031
0.0675905
0.0671383
0.0667532
0.0664419
0.06621
0.066064
0.0660248
0.066107
0.00178221
0.00177908
0.00167685
0.00148338
0.00121275
0.000871423
0.000465232
4.8163e-07
-0.00051645
-0.00107916
-0.00168123
-0.00231631
-0.00297812
-0.00366053
-0.00435755
-0.00506334
-0.00577235
-0.00647924
-0.00717895
-0.00786672
-0.00853804
-0.00918868
-0.00981465
-0.0104122
-0.010978
-0.0115086
-0.0120013
-0.0124531
-0.0128618
-0.0132249
-0.0135405
-0.0138066
-0.0140216
-0.014184
-0.0142926
-0.0143462
-0.0143438
-0.0142848
-0.0141684
-0.0139943
-0.0137619
-0.0134712
-0.0131221
-0.0127145
-0.0122488
-0.0117251
-0.0111439
-0.0105057
-0.009811
-0.00906063
-0.00825534
-0.007396
-0.00648359
-0.00551915
-0.00450381
-0.00343878
-0.00232535
-0.00116487
4.12554e-05
0.00129153
0.00258442
0.0039183
0.00529153
0.00670237
0.00814906
0.00962978
0.0111427
0.0126858
0.0142572
0.0158549
0.0174769
0.019121
0.0207852
0.0224674
0.0241653
0.0258769
0.0275998
0.0293319
0.0310708
0.0328144
0.0345604
0.0363063
0.0380501
0.0397892
0.0415215
0.0432446
0.0449562
0.0466541
0.0483358
0.0499993
0.0516421
0.0532621
0.054857
0.0564246
0.0579629
0.0594696
0.0609426
0.06238
0.0637797
0.0651398
0.0664585
0.0677338
0.068964
0.0701475
0.0712825
0.0723675
0.073401
0.0743817
0.0753082
0.0761794
0.0769941
0.0777513
0.0784502
0.0790899
0.0796697
0.0801892
0.0806479
0.0810455
0.0813819
0.0816571
0.0818713
0.0820246
0.0821177
0.0821511
0.0821256
0.0820422
0.0819021
0.0817066
0.0814571
0.0811556
0.0808038
0.0804039
0.0799583
0.0794696
0.0789406
0.0783742
0.0777738
0.077143
0.0764853
0.0758049
0.075106
0.074393
0.0736708
0.0729444
0.0722188
0.0714996
0.0707925
0.0701033
0.069438
0.0688026
0.0682035
0.0676469
0.0671389
0.0666858
0.0662937
0.0659688
0.0657164
0.0655428
0.0654638
0.065489
0.00252477
0.00245032
0.00229708
0.00206718
0.00176803
0.00140555
0.000985304
0.000512946
-5.77179e-06
-0.000565079
-0.0011592
-0.00178238
-0.00242894
-0.00309325
-0.00376983
-0.00445332
-0.0051386
-0.00582073
-0.00649503
-0.00715703
-0.00780251
-0.00842749
-0.00902821
-0.00960113
-0.010143
-0.0106507
-0.0111214
-0.0115526
-0.0119418
-0.0122869
-0.0125858
-0.0128369
-0.0130383
-0.0131888
-0.0132871
-0.0133321
-0.0133229
-0.0132586
-0.0131387
-0.0129628
-0.0127304
-0.0124413
-0.0120955
-0.0116929
-0.0112338
-0.0107185
-0.0101472
-0.00952044
-0.00883885
-0.00810308
-0.00731389
-0.00647212
-0.0055787
-0.00463464
-0.00364104
-0.00259906
-0.00150995
-0.000375002
0.000804399
0.00202682
0.00329076
0.00459466
0.0059369
0.0073158
0.00872966
0.0101767
0.0116551
0.013163
0.0146985
0.0162596
0.0178444
0.0194509
0.0210769
0.0227205
0.0243794
0.0260517
0.027735
0.0294273
0.0311264
0.0328299
0.0345358
0.0362417
0.0379454
0.0396447
0.0413373
0.0430209
0.0446934
0.0463524
0.0479958
0.0496213
0.0512267
0.0528098
0.0543686
0.0559007
0.0574042
0.0588769
0.0603168
0.061722
0.0630905
0.0644204
0.0657099
0.0669572
0.0681605
0.0693183
0.0704289
0.0714908
0.0725026
0.0734629
0.0743706
0.0752243
0.0760231
0.076766
0.077452
0.0780805
0.0786509
0.0791625
0.079615
0.0800082
0.0803419
0.0806161
0.080831
0.0809869
0.0810843
0.0811237
0.0811059
0.081032
0.080903
0.0807202
0.0804852
0.0801995
0.0798652
0.0794842
0.0790588
0.0785915
0.0780851
0.0775423
0.0769664
0.0763607
0.0757288
0.0750745
0.0744017
0.0737147
0.0730181
0.0723165
0.0716147
0.0709178
0.070231
0.0695598
0.0689097
0.0682862
0.067695
0.0671419
0.0666325
0.0661723
0.0657671
0.0654223
0.0651431
0.0649353
0.0648086
0.064767
0.00335514
0.00320257
0.00299221
0.00272016
0.00238676
0.00199744
0.00155745
0.00107178
0.000545521
-1.61632e-05
-0.000608099
-0.0012251
-0.001862
-0.00251368
-0.00317513
-0.00384146
-0.00450796
-0.00517007
-0.00582345
-0.00646396
-0.00708764
-0.00769076
-0.00826977
-0.00882135
-0.00934239
-0.00983
-0.0102815
-0.0106944
-0.0110664
-0.0113955
-0.0116797
-0.0119173
-0.0121067
-0.0122465
-0.0123357
-0.012373
-0.0123576
-0.0122888
-0.0121659
-0.0119886
-0.0117563
-0.011469
-0.0111264
-0.0107288
-0.0102761
-0.00976866
-0.00920682
-0.00859103
-0.00792186
-0.00719994
-0.00642601
-0.00560087
-0.00472543
-0.00380065
-0.00282761
-0.00180744
-0.000741323
0.000369464
0.00152359
0.00271966
0.00395622
0.00523176
0.00654469
0.0078934
0.0092762
0.0106914
0.0121372
0.0136118
0.0151133
0.0166398
0.0181895
0.0197603
0.0213503
0.0229573
0.0245795
0.0262145
0.0278605
0.0295152
0.0311765
0.0328423
0.0345103
0.0361784
0.0378443
0.039506
0.0411611
0.0428075
0.0444431
0.0460655
0.0476727
0.0492625
0.0508327
0.0523811
0.0539057
0.0554045
0.0568752
0.058316
0.0597248
0.0610997
0.0624388
0.0637403
0.0650024
0.0662233
0.0674015
0.0685351
0.0696228
0.0706631
0.0716545
0.0725957
0.0734856
0.074323
0.0751068
0.0758362
0.0765102
0.0771282
0.0776896
0.0781937
0.0786404
0.0790293
0.0793602
0.0796333
0.0798487
0.0800067
0.0801077
0.0801524
0.0801414
0.0800758
0.0799567
0.0797852
0.079563
0.0792914
0.0789725
0.0786081
0.0782004
0.077752
0.0772652
0.076743
0.0761883
0.0756043
0.0749943
0.074362
0.0737112
0.0730459
0.0723702
0.0716885
0.0710054
0.0703256
0.0696538
0.0689952
0.0683547
0.0677374
0.0671486
0.0665933
0.0660767
0.065604
0.0651801
0.0648098
0.0644982
0.0642506
0.0640699
0.0639545
0.00426005
0.00402461
0.00375244
0.00343358
0.00306109
0.00263999
0.00217526
0.0016712
0.00113224
0.000562976
-3.19798e-05
-0.000647957
-0.00128029
-0.00192434
-0.00257554
-0.00322945
-0.00388173
-0.00452823
-0.0051649
-0.00578792
-0.00639359
-0.00697842
-0.00753909
-0.00807249
-0.00857568
-0.00904594
-0.00948074
-0.00987772
-0.0102347
-0.0105497
-0.0108209
-0.0110466
-0.0112254
-0.0113558
-0.0114369
-0.0114675
-0.0114468
-0.0113741
-0.0112487
-0.0110703
-0.0108384
-0.0105529
-0.0102137
-0.00982078
-0.00937429
-0.00887445
-0.00832162
-0.00771625
-0.00705885
-0.00635005
-0.00559056
-0.00478115
-0.0039227
-0.00301616
-0.00206254
-0.00106296
-1.85714e-05
0.0010694
0.00219966
0.00337086
0.00458157
0.00583032
0.00711558
0.00843577
0.00978926
0.0111744
0.0125894
0.0140325
0.015502
0.0169959
0.0185124
0.0200496
0.0216055
0.0231781
0.0247655
0.0263655
0.0279762
0.0295955
0.0312212
0.0328513
0.0344837
0.0361161
0.0377465
0.0393727
0.0409926
0.042604
0.0442048
0.0457929
0.047366
0.0489222
0.0504592
0.0519751
0.0534677
0.054935
0.0563751
0.0577859
0.0591655
0.060512
0.0618236
0.0630984
0.0643348
0.0655311
0.0666856
0.0677967
0.0688629
0.0698829
0.0708552
0.0717785
0.0726518
0.0734739
0.0742437
0.0749604
0.0756231
0.0762312
0.0767841
0.0772812
0.0777222
0.0781069
0.0784352
0.078707
0.0789226
0.0790823
0.0791864
0.0792356
0.0792305
0.0791722
0.0790617
0.0789002
0.078689
0.0784298
0.0781243
0.0777744
0.0773822
0.07695
0.0764802
0.0759756
0.0754389
0.0748732
0.0742817
0.0736677
0.0730349
0.072387
0.0717279
0.0710617
0.0703927
0.0697251
0.0690634
0.0684123
0.0677764
0.0671602
0.0665685
0.066006
0.0654773
0.0649869
0.0645394
0.0641388
0.06379
0.0634978
0.0632583
0.0630641
0.00522714
0.00490567
0.00456822
0.00419884
0.00378331
0.00332624
0.00283241
0.00230547
0.00174923
0.00116773
0.000565093
-5.45125e-05
-0.00068689
-0.00132786
-0.00197328
-0.00261912
-0.00326142
-0.00389637
-0.00452025
-0.0051295
-0.00572071
-0.0062906
-0.00683611
-0.0073543
-0.00784243
-0.00829795
-0.00871847
-0.00910174
-0.00944573
-0.00974853
-0.0100084
-0.0102238
-0.0103933
-0.0105156
-0.0105897
-0.0106145
-0.0105892
-0.0105132
-0.0103858
-0.0102067
-0.00997548
-0.00969196
-0.00935603
-0.00896774
-0.0085272
-0.00803465
-0.00749042
-0.00689493
-0.00624869
-0.00555231
-0.00480647
-0.00401193
-0.00316952
-0.00228018
-0.00134489
-0.000364728
0.000659182
0.00172564
0.00283341
0.00398115
0.0051675
0.00639102
0.00765021
0.00894353
0.0102694
0.0116262
0.0130122
0.0144257
0.0158649
0.0173281
0.0188134
0.0203189
0.0218427
0.0233829
0.0249376
0.0265047
0.0280822
0.0296681
0.0312604
0.032857
0.0344558
0.0360547
0.0376517
0.0392446
0.0408314
0.0424099
0.0439781
0.0455338
0.047075
0.0485997
0.0501057
0.051591
0.0530536
0.0544915
0.0559028
0.0572855
0.0586378
0.0599577
0.0612436
0.0624935
0.0637059
0.0648791
0.0660115
0.0671016
0.0681478
0.0691488
0.0701032
0.0710099
0.0718677
0.0726754
0.0734321
0.074137
0.0747891
0.0753879
0.0759328
0.0764232
0.0768589
0.0772395
0.0775651
0.0778355
0.0780511
0.0782119
0.0783186
0.0783716
0.0783716
0.0783196
0.0782165
0.0780636
0.0778621
0.0776135
0.0773196
0.0769821
0.0766031
0.0761847
0.0757294
0.0752395
0.0747179
0.0741674
0.0735909
0.0729918
0.0723733
0.0717389
0.0710924
0.0704376
0.0697782
0.0691185
0.0684624
0.0678143
0.0671781
0.0665584
0.0659593
0.065385
0.0648396
0.0643271
0.0638516
0.0634165
0.0630265
0.0626861
0.0623843
0.0621078
0.00624508
0.00583562
0.00543044
0.00500771
0.00454589
0.00404934
0.00352267
0.00296894
0.00239138
0.00179354
0.00117906
0.000551648
-8.49416e-05
-0.000726961
-0.00137069
-0.00201245
-0.00264867
-0.00327583
-0.00389053
-0.00448948
-0.00506953
-0.00562764
-0.00616095
-0.00666674
-0.00714246
-0.0075857
-0.00799421
-0.00836591
-0.00869885
-0.00899125
-0.00924147
-0.00944801
-0.00960954
-0.00972486
-0.00979292
-0.00981281
-0.00978374
-0.00970503
-0.00957617
-0.00939671
-0.00916636
-0.00888491
-0.0085523
-0.00816854
-0.00773376
-0.00724818
-0.00671214
-0.00612603
-0.00549037
-0.00480573
-0.00407278
-0.00329225
-0.00246496
-0.00159182
-0.000673792
0.000288091
0.00129273
0.00233896
0.00342556
0.00455125
0.00571469
0.00691447
0.00814914
0.0094172
0.0107171
0.0120472
0.013406
0.0147916
0.0162025
0.0176368
0.0190927
0.0205685
0.0220622
0.023572
0.0250959
0.026632
0.0281784
0.029733
0.0312939
0.032859
0.0344264
0.0359939
0.0375595
0.0391212
0.040677
0.0422247
0.0437623
0.0452878
0.0467992
0.0482943
0.0497713
0.051228
0.0526626
0.0540731
0.0554575
0.056814
0.0581407
0.0594359
0.0606977
0.0619245
0.0631146
0.0642663
0.0653781
0.0664485
0.0674761
0.0684594
0.0693973
0.0702884
0.0711317
0.0719261
0.0726706
0.0733644
0.0740067
0.0745968
0.0751341
0.0756182
0.0760487
0.0764255
0.0767484
0.0770173
0.0772325
0.0773942
0.0775029
0.077559
0.0775633
0.0775166
0.0774198
0.0772742
0.0770809
0.0768414
0.0765573
0.0762303
0.0758624
0.0754556
0.0750121
0.0745344
0.0740251
0.0734867
0.0729223
0.0723346
0.071727
0.0711026
0.070465
0.0698175
0.069164
0.068508
0.0678534
0.0672039
0.0665635
0.065936
0.0653252
0.0647349
0.0641688
0.0636305
0.0631232
0.0626502
0.0622157
0.061824
0.0614573
0.0610966
0.0073035
0.00680507
0.00633054
0.00585228
0.00534161
0.00480266
0.00423998
0.00365608
0.0030537
0.0024359
0.00180588
0.00116692
0.000522355
-0.000124468
-0.000770211
-0.00141156
-0.00204525
-0.00266809
-0.00327695
-0.00386881
-0.00444076
-0.00499002
-0.00551393
-0.00600996
-0.00647574
-0.00690902
-0.00730771
-0.00766985
-0.0079936
-0.00827729
-0.00851939
-0.00871849
-0.00887332
-0.00898277
-0.00904583
-0.00906165
-0.00902947
-0.00894868
-0.00881876
-0.00863933
-0.00841007
-0.00813083
-0.00780153
-0.0074222
-0.00699298
-0.00651408
-0.00598583
-0.00540863
-0.00478296
-0.0041094
-0.0033886
-0.00262126
-0.0018082
-0.000950289
-4.84673e-05
0.00089625
0.00188279
0.00291003
0.00397677
0.00508177
0.00622371
0.00740123
0.0086129
0.00985726
0.0111328
0.012438
0.0137711
0.0151307
0.0165149
0.0179222
0.0193506
0.0207985
0.022264
0.0237452
0.0252403
0.0267475
0.0282647
0.02979
0.0313215
0.0328572
0.0343952
0.0359333
0.0374697
0.0390022
0.040529
0.0420479
0.043557
0.0450543
0.0465378
0.0480055
0.0494553
0.0508855
0.0522939
0.0536788
0.0550383
0.0563704
0.0576734
0.0589455
0.060185
0.0613903
0.0625596
0.0636913
0.064784
0.0658362
0.0668465
0.0678135
0.068736
0.0696127
0.0704426
0.0712246
0.0719578
0.0726413
0.0732743
0.0738563
0.0743866
0.0748647
0.0752904
0.0756634
0.0759836
0.0762509
0.0764656
0.0766278
0.076738
0.0767966
0.0768044
0.076762
0.0766705
0.0765309
0.0763445
0.0761125
0.0758365
0.0755182
0.0751594
0.074762
0.0743282
0.0738602
0.0733605
0.0728315
0.072276
0.0716969
0.0710969
0.0704791
0.0698469
0.0692033
0.0685519
0.0678959
0.067239
0.0665845
0.0659359
0.0652969
0.0646707
0.0640608
0.0634705
0.0629028
0.0623606
0.0618466
0.061365
0.0609199
0.0604865
0.0600403
0.00839305
0.00780537
0.00726048
0.00672509
0.00616354
0.00557982
0.00497848
0.00436155
0.0037313
0.00309037
0.00244155
0.0017877
0.00113178
0.000476759
-0.000174371
-0.000818623
-0.00145305
-0.00207473
-0.00268083
-0.00326857
-0.00383529
-0.00437842
-0.00489553
-0.00538427
-0.00584244
-0.00626795
-0.00665885
-0.00701332
-0.00732964
-0.00760624
-0.0078417
-0.00803469
-0.00818402
-0.00828866
-0.00834766
-0.00836022
-0.00832563
-0.00824331
-0.00811279
-0.00793369
-0.00770576
-0.00742883
-0.00710285
-0.00672786
-0.006304
-0.00583149
-0.00531064
-0.00474187
-0.00412564
-0.00346252
-0.00275314
-0.0019982
-0.00119848
-0.000354849
0.000531782
0.00146042
0.00243002
0.00343948
0.00448764
0.00557327
0.0066951
0.00785179
0.00904195
0.0102642
0.0115169
0.0127987
0.014108
0.0154431
0.0168025
0.0181844
0.0195872
0.021009
0.0224481
0.0239027
0.025371
0.0268511
0.0283411
0.0298391
0.0313432
0.0328515
0.034362
0.0358727
0.0373818
0.0388872
0.040387
0.0418792
0.0433617
0.0448328
0.0462903
0.0477325
0.0491572
0.0505626
0.0519469
0.053308
0.0546443
0.0559538
0.0572349
0.0584856
0.0597045
0.0608898
0.0620399
0.0631532
0.0642283
0.0652637
0.0662579
0.0672098
0.0681181
0.0689815
0.069799
0.0705696
0.0712923
0.0719663
0.0725908
0.0731652
0.0736889
0.0741615
0.0745826
0.0749519
0.0752694
0.0755351
0.075749
0.0759114
0.0760226
0.0760832
0.0760936
0.0760548
0.0759675
0.0758329
0.075652
0.0754261
0.0751566
0.0748453
0.0744937
0.0741037
0.0736773
0.0732167
0.0727242
0.072202
0.0716528
0.0710792
0.0704838
0.0698696
0.0692396
0.0685967
0.067944
0.0672846
0.0666219
0.0659588
0.0652987
0.0646447
0.0639998
0.0633671
0.0627494
0.0621495
0.0615698
0.0610124
0.0604816
0.0599813
0.0594801
0.0589479
0.00950522
0.00882851
0.00821275
0.00761912
0.00700513
0.00637474
0.00573256
0.00508019
0.00441946
0.00375264
0.00308212
0.00241041
0.0017401
0.00107383
0.000414273
-0.000235901
-0.000874024
-0.00149746
-0.00210361
-0.00268997
-0.0032541
-0.00379364
-0.00430637
-0.00479012
-0.00524285
-0.00566264
-0.00604767
-0.00639625
-0.00670679
-0.00697783
-0.00720804
-0.00739618
-0.00754117
-0.00764201
-0.00769784
-0.0077079
-0.00767155
-0.00758824
-0.00745753
-0.00727909
-0.00705268
-0.00677816
-0.0064555
-0.00608474
-0.00566605
-0.00519964
-0.00468583
-0.00412502
-0.00351768
-0.00286437
-0.0021657
-0.00142237
-0.000635139
0.000195146
0.00106758
0.0019812
0.00293499
0.00392785
0.00495867
0.00602624
0.00712932
0.00826659
0.0094367
0.0106382
0.0118698
0.0131298
0.0144168
0.0157292
0.0170654
0.0184238
0.0198026
0.0212002
0.0226147
0.0240446
0.0254878
0.0269427
0.0284074
0.02988
0.0313587
0.0328415
0.0343265
0.0358118
0.0372956
0.0387758
0.0402505
0.0417179
0.0431759
0.0446227
0.0460562
0.0474747
0.0488762
0.0502587
0.0516206
0.0529599
0.0542747
0.0555634
0.0568242
0.0580553
0.0592551
0.060422
0.0615545
0.0626508
0.0637097
0.0647296
0.0657092
0.0666472
0.0675424
0.0683936
0.0691998
0.0699598
0.0706729
0.0713381
0.0719548
0.0725222
0.0730398
0.0735072
0.0739239
0.0742898
0.0746047
0.0748686
0.0750816
0.0752438
0.0753557
0.0754176
0.0754301
0.075394
0.07531
0.0751792
0.0750026
0.0747815
0.0745171
0.074211
0.0738649
0.0734804
0.0730594
0.072604
0.0721164
0.0715986
0.0710531
0.0704824
0.069889
0.0692755
0.0686447
0.0679993
0.0673423
0.0666765
0.0660048
0.0653301
0.0646554
0.0639833
0.0633168
0.0626584
0.0620107
0.0613761
0.0607565
0.0601537
0.0595721
0.0590155
0.0584458
0.0578277
0.0106323
0.00986711
0.00918035
0.00852776
0.00786021
0.00718167
0.00649687
0.00580702
0.00511358
0.00441845
0.0037237
0.0030315
0.00234411
0.00166386
0.000993126
0.000334304
-0.000310209
-0.000938039
-0.00154684
-0.00213433
-0.0026983
-0.00323661
-0.0037472
-0.00422809
-0.00467741
-0.00509339
-0.00547434
-0.00581871
-0.00612502
-0.00639193
-0.0066182
-0.0068027
-0.0069444
-0.00704241
-0.00709591
-0.0071042
-0.00706669
-0.00698289
-0.0068524
-0.0066749
-0.0064502
-0.00617817
-0.00585882
-0.0054922
-0.00507847
-0.00461787
-0.00411072
-0.00355742
-0.00295843
-0.00231431
-0.00162566
-0.000893162
-0.000117579
0.000700269
0.00155949
0.00245914
0.00339821
0.00437564
0.00539034
0.00644113
0.00752677
0.008646
0.00979748
0.0109798
0.0121917
0.0134315
0.0146978
0.0159891
0.0173038
0.0186403
0.0199969
0.021372
0.0227638
0.0241707
0.0255908
0.0270224
0.0284636
0.0299127
0.0313678
0.032827
0.0342885
0.0357503
0.0372107
0.0386676
0.0401192
0.0415637
0.042999
0.0444234
0.0458348
0.0472315
0.0486116
0.0499732
0.0513144
0.0526335
0.0539288
0.0551983
0.0564405
0.0576536
0.058836
0.0599861
0.0611024
0.0621832
0.0632273
0.0642331
0.0651993
0.0661246
0.0670079
0.067848
0.0686437
0.0693942
0.0700985
0.0707557
0.0713651
0.0719261
0.0724381
0.0729007
0.0733134
0.073676
0.0739883
0.0742504
0.0744623
0.0746241
0.0747362
0.074799
0.0748129
0.0747788
0.0746972
0.0745692
0.0743958
0.0741782
0.0739175
0.0736152
0.0732729
0.0728921
0.0724746
0.0720224
0.0715375
0.0710219
0.0704778
0.0699075
0.0693133
0.0686979
0.0680636
0.0674131
0.066749
0.0660739
0.0653904
0.0647013
0.0640091
0.0633163
0.0626255
0.0619389
0.0612589
0.0605874
0.0599261
0.0592764
0.0586427
0.0580289
0.0573906
0.056687
0.0117672
0.0109144
0.0101568
0.00944488
0.00872297
0.00799515
0.00726629
0.00653728
0.00580922
0.0050837
0.0043625
0.00364748
0.00294061
0.00224395
0.00155959
0.000889663
0.000236319
-0.000398315
-0.00101213
-0.00160307
-0.00216912
-0.00270835
-0.00321888
-0.0036989
-0.00414669
-0.00456063
-0.00493918
-0.00528089
-0.00558443
-0.00584855
-0.00607212
-0.00625408
-0.00639351
-0.00648958
-0.00654153
-0.00654874
-0.00651066
-0.00642683
-0.0062969
-0.00612061
-0.00589778
-0.00562833
-0.00531226
-0.00494966
-0.0045407
-0.00408562
-0.00358476
-0.00303851
-0.00244734
-0.00181179
-0.00113247
-0.000410051
0.000354715
0.00116102
0.00200798
0.00289468
0.00382012
0.00478327
0.00578304