/*--------------------------------*- C++ -*----------------------------------*\
  =========                 |
  \\      /  F ield         | OpenFOAM: The Open Source CFD Toolbox
   \\    /   O peration     | Website:  https://openfoam.org
    \\  /    A nd           | Version:  7
     \\/     M anipulation  |
\*---------------------------------------------------------------------------*/
FoamFile
{
    version     2.0;
    format      ascii;
    class       volVectorField;
    location    "0.3125";
    object      U;
}
// * * * * * * * * * * * * * * * * * * * * * * * * * * * * * * * * * * * * * //

dimensions      [0 1 -1 0 0 0 0];

internalField   nonuniform List<vector> 
25600
(
(1.7536e-07 -2.09723e-07 0)
(2.83351e-06 -1.79751e-06 0)
(9.07507e-06 -2.83438e-06 0)
(1.69282e-05 -3.20732e-06 0)
(2.4886e-05 -3.12289e-06 0)
(3.19995e-05 -2.74481e-06 0)
(3.76168e-05 -2.1799e-06 0)
(4.12901e-05 -1.49913e-06 0)
(4.27191e-05 -7.49288e-07 0)
(4.17096e-05 3.93779e-08 0)
(3.81445e-05 8.46666e-07 0)
(3.19624e-05 1.65852e-06 0)
(2.31421e-05 2.46488e-06 0)
(1.16925e-05 3.25817e-06 0)
(-2.35356e-06 4.0331e-06 0)
(-1.89447e-05 4.78587e-06 0)
(-3.80155e-05 5.51353e-06 0)
(-5.94896e-05 6.21384e-06 0)
(-8.32825e-05 6.88518e-06 0)
(-0.000109303 7.52628e-06 0)
(-0.000137454 8.13624e-06 0)
(-0.000167636 8.71452e-06 0)
(-0.000199744 9.26079e-06 0)
(-0.000233675 9.77487e-06 0)
(-0.00026932 1.02567e-05 0)
(-0.000306573 1.07061e-05 0)
(-0.000345326 1.11234e-05 0)
(-0.00038547 1.15088e-05 0)
(-0.000426898 1.18625e-05 0)
(-0.000469502 1.21849e-05 0)
(-0.000513176 1.24764e-05 0)
(-0.000557813 1.27374e-05 0)
(-0.00060331 1.29683e-05 0)
(-0.000649564 1.31696e-05 0)
(-0.000696472 1.33418e-05 0)
(-0.000743935 1.34855e-05 0)
(-0.000791853 1.3601e-05 0)
(-0.00084013 1.36891e-05 0)
(-0.000888671 1.37502e-05 0)
(-0.000937381 1.37849e-05 0)
(-0.000986169 1.37939e-05 0)
(-0.00103495 1.37776e-05 0)
(-0.00108362 1.37366e-05 0)
(-0.00113212 1.36716e-05 0)
(-0.00118034 1.3583e-05 0)
(-0.00122821 1.34716e-05 0)
(-0.00127565 1.3338e-05 0)
(-0.00132258 1.31826e-05 0)
(-0.00136893 1.30062e-05 0)
(-0.00141462 1.28092e-05 0)
(-0.00145958 1.25923e-05 0)
(-0.00150374 1.23561e-05 0)
(-0.00154703 1.21012e-05 0)
(-0.00158939 1.18283e-05 0)
(-0.00163075 1.15378e-05 0)
(-0.00167106 1.12304e-05 0)
(-0.00171025 1.09066e-05 0)
(-0.00174826 1.05671e-05 0)
(-0.00178505 1.02125e-05 0)
(-0.00182055 9.84344e-06 0)
(-0.00185473 9.46041e-06 0)
(-0.00188752 9.06406e-06 0)
(-0.00191889 8.65495e-06 0)
(-0.00194879 8.23371e-06 0)
(-0.00197717 7.80095e-06 0)
(-0.002004 7.35729e-06 0)
(-0.00202924 6.90334e-06 0)
(-0.00205285 6.43971e-06 0)
(-0.00207481 5.967e-06 0)
(-0.00209507 5.48584e-06 0)
(-0.00211361 4.99685e-06 0)
(-0.00213041 4.50068e-06 0)
(-0.00214543 3.99796e-06 0)
(-0.00215867 3.48931e-06 0)
(-0.00217009 2.97537e-06 0)
(-0.00217968 2.4568e-06 0)
(-0.00218743 1.93428e-06 0)
(-0.00219332 1.40847e-06 0)
(-0.00219734 8.80022e-07 0)
(-0.00219948 3.49606e-07 0)
(-0.00219974 -1.82101e-07 0)
(-0.00219812 -7.144e-07 0)
(-0.00219461 -1.24659e-06 0)
(-0.00218922 -1.77796e-06 0)
(-0.00218195 -2.30781e-06 0)
(-0.00217281 -2.83542e-06 0)
(-0.0021618 -3.36008e-06 0)
(-0.00214895 -3.88106e-06 0)
(-0.00213426 -4.39761e-06 0)
(-0.00211775 -4.909e-06 0)
(-0.00209944 -5.41449e-06 0)
(-0.00207936 -5.91333e-06 0)
(-0.00205752 -6.40474e-06 0)
(-0.00203397 -6.88796e-06 0)
(-0.00200872 -7.36222e-06 0)
(-0.00198181 -7.82675e-06 0)
(-0.00195328 -8.28079e-06 0)
(-0.00192317 -8.72356e-06 0)
(-0.00189151 -9.15428e-06 0)
(-0.00185836 -9.57217e-06 0)
(-0.00182376 -9.97646e-06 0)
(-0.00178775 -1.03664e-05 0)
(-0.0017504 -1.07411e-05 0)
(-0.00171176 -1.11e-05 0)
(-0.00167188 -1.14421e-05 0)
(-0.00163082 -1.17668e-05 0)
(-0.00158866 -1.20732e-05 0)
(-0.00154545 -1.23606e-05 0)
(-0.00150126 -1.26284e-05 0)
(-0.00145617 -1.28756e-05 0)
(-0.00141024 -1.31017e-05 0)
(-0.00136356 -1.33059e-05 0)
(-0.0013162 -1.34875e-05 0)
(-0.00126825 -1.36458e-05 0)
(-0.00121978 -1.37801e-05 0)
(-0.00117089 -1.38898e-05 0)
(-0.00112165 -1.39742e-05 0)
(-0.00107216 -1.40328e-05 0)
(-0.00102252 -1.40648e-05 0)
(-0.000972812 -1.40698e-05 0)
(-0.000923135 -1.40472e-05 0)
(-0.000873586 -1.39964e-05 0)
(-0.000824266 -1.3917e-05 0)
(-0.000775274 -1.38084e-05 0)
(-0.000726714 -1.36703e-05 0)
(-0.000678688 -1.35022e-05 0)
(-0.000631301 -1.33037e-05 0)
(-0.000584659 -1.30746e-05 0)
(-0.000538869 -1.28144e-05 0)
(-0.000494037 -1.2523e-05 0)
(-0.000450272 -1.22001e-05 0)
(-0.000407682 -1.18456e-05 0)
(-0.000366375 -1.14595e-05 0)
(-0.000326458 -1.10415e-05 0)
(-0.00028804 -1.05918e-05 0)
(-0.000251227 -1.01105e-05 0)
(-0.000216125 -9.59778e-06 0)
(-0.000182837 -9.05395e-06 0)
(-0.000151466 -8.47949e-06 0)
(-0.00012211 -7.87502e-06 0)
(-9.4866e-05 -7.24131e-06 0)
(-6.98252e-05 -6.57929e-06 0)
(-4.70738e-05 -5.89021e-06 0)
(-2.66923e-05 -5.17569e-06 0)
(-8.7531e-06 -4.43781e-06 0)
(6.68163e-06 -3.67928e-06 0)
(1.9562e-05 -2.90352e-06 0)
(2.98529e-05 -2.11487e-06 0)
(3.75384e-05 -1.31899e-06 0)
(4.26278e-05 -5.23621e-07 0)
(4.51627e-05 2.60655e-07 0)
(4.52261e-05 1.01923e-06 0)
(4.29564e-05 1.73144e-06 0)
(3.8568e-05 2.36662e-06 0)
(3.23807e-05 2.87804e-06 0)
(2.48617e-05 3.19549e-06 0)
(1.66769e-05 3.21489e-06 0)
(8.77843e-06 2.77954e-06 0)
(2.64242e-06 1.6971e-06 0)
(1.21922e-07 1.23138e-07 0)
(1.77449e-06 -2.88218e-06 0)
(9.37739e-06 -9.41655e-06 0)
(2.31316e-05 -1.34186e-05 0)
(3.93698e-05 -1.47264e-05 0)
(5.52476e-05 -1.39602e-05 0)
(6.87698e-05 -1.16917e-05 0)
(7.83996e-05 -8.35976e-06 0)
(8.29809e-05 -4.29416e-06 0)
(8.16815e-05 2.63228e-07 0)
(7.39226e-05 5.13794e-06 0)
(5.93216e-05 1.02024e-05 0)
(3.76469e-05 1.53609e-05 0)
(8.78307e-06 2.05408e-05 0)
(-2.72941e-05 2.56863e-05 0)
(-7.05365e-05 3.0755e-05 0)
(-0.000120839 3.57143e-05 0)
(-0.000178051 4.05384e-05 0)
(-0.000241986 4.52071e-05 0)
(-0.000312432 4.97049e-05 0)
(-0.00038915 5.40194e-05 0)
(-0.000471887 5.81411e-05 0)
(-0.000560372 6.20631e-05 0)
(-0.000654325 6.57803e-05 0)
(-0.00075346 6.92887e-05 0)
(-0.00085748 7.25856e-05 0)
(-0.000966089 7.56695e-05 0)
(-0.00107898 7.85397e-05 0)
(-0.00119586 8.11961e-05 0)
(-0.00131642 8.36395e-05 0)
(-0.00144035 8.58711e-05 0)
(-0.00156736 8.78925e-05 0)
(-0.00169714 8.97056e-05 0)
(-0.0018294 9.13126e-05 0)
(-0.00196384 9.27162e-05 0)
(-0.00210017 9.39191e-05 0)
(-0.0022381 9.49243e-05 0)
(-0.00237735 9.57351e-05 0)
(-0.00251764 9.63547e-05 0)
(-0.0026587 9.67867e-05 0)
(-0.00280024 9.70345e-05 0)
(-0.00294202 9.7102e-05 0)
(-0.00308377 9.69927e-05 0)
(-0.00322523 9.67106e-05 0)
(-0.00336616 9.62595e-05 0)
(-0.00350632 9.56433e-05 0)
(-0.00364546 9.4866e-05 0)
(-0.00378335 9.39317e-05 0)
(-0.00391977 9.28444e-05 0)
(-0.00405449 9.16081e-05 0)
(-0.00418731 9.02269e-05 0)
(-0.00431801 8.8705e-05 0)
(-0.00444639 8.70465e-05 0)
(-0.00457225 8.52556e-05 0)
(-0.0046954 8.33364e-05 0)
(-0.00481566 8.1293e-05 0)
(-0.00493285 7.91297e-05 0)
(-0.0050468 7.68506e-05 0)
(-0.00515733 7.446e-05 0)
(-0.00526429 7.19621e-05 0)
(-0.00536753 6.93611e-05 0)
(-0.00546689 6.66613e-05 0)
(-0.00556225 6.3867e-05 0)
(-0.00565345 6.09822e-05 0)
(-0.00574037 5.80115e-05 0)
(-0.00582288 5.49591e-05 0)
(-0.00590088 5.18293e-05 0)
(-0.00597426 4.86266e-05 0)
(-0.00604289 4.53552e-05 0)
(-0.0061067 4.20198e-05 0)
(-0.00616559 3.86245e-05 0)
(-0.00621948 3.51739e-05 0)
(-0.00626828 3.16726e-05 0)
(-0.00631193 2.8125e-05 0)
(-0.00635036 2.45358e-05 0)
(-0.00638352 2.09095e-05 0)
(-0.00641135 1.72509e-05 0)
(-0.00643382 1.35645e-05 0)
(-0.00645088 9.85511e-06 0)
(-0.0064625 6.12758e-06 0)
(-0.00646866 2.38666e-06 0)
(-0.00646936 -1.36279e-06 0)
(-0.00646456 -5.11587e-06 0)
(-0.00645429 -8.8676e-06 0)
(-0.00643854 -1.2613e-05 0)
(-0.00641732 -1.6347e-05 0)
(-0.00639066 -2.00645e-05 0)
(-0.00635859 -2.37604e-05 0)
(-0.00632113 -2.74295e-05 0)
(-0.00627835 -3.10667e-05 0)
(-0.00623027 -3.46667e-05 0)
(-0.00617697 -3.82242e-05 0)
(-0.00611852 -4.17339e-05 0)
(-0.00605497 -4.51904e-05 0)
(-0.00598643 -4.85884e-05 0)
(-0.00591297 -5.19224e-05 0)
(-0.0058347 -5.51871e-05 0)
(-0.00575172 -5.8377e-05 0)
(-0.00566414 -6.14868e-05 0)
(-0.00557209 -6.45108e-05 0)
(-0.0054757 -6.74438e-05 0)
(-0.0053751 -7.02803e-05 0)
(-0.00527044 -7.30149e-05 0)
(-0.00516187 -7.56421e-05 0)
(-0.00504955 -7.81566e-05 0)
(-0.00493366 -8.05531e-05 0)
(-0.00481436 -8.28262e-05 0)
(-0.00469185 -8.49706e-05 0)
(-0.00456631 -8.69813e-05 0)
(-0.00443794 -8.8853e-05 0)
(-0.00430696 -9.05807e-05 0)
(-0.00417357 -9.21595e-05 0)
(-0.00403799 -9.35844e-05 0)
(-0.00390046 -9.48506e-05 0)
(-0.0037612 -9.59535e-05 0)
(-0.00362046 -9.68885e-05 0)
(-0.00347848 -9.76511e-05 0)
(-0.00333553 -9.82372e-05 0)
(-0.00319185 -9.86425e-05 0)
(-0.00304772 -9.88631e-05 0)
(-0.0029034 -9.88952e-05 0)
(-0.00275918 -9.87352e-05 0)
(-0.00261532 -9.83797e-05 0)
(-0.00247213 -9.78255e-05 0)
(-0.00232988 -9.70698e-05 0)
(-0.00218888 -9.61096e-05 0)
(-0.00204941 -9.49427e-05 0)
(-0.00191178 -9.35669e-05 0)
(-0.0017763 -9.19803e-05 0)
(-0.00164325 -9.01817e-05 0)
(-0.00151296 -8.81698e-05 0)
(-0.00138573 -8.59438e-05 0)
(-0.00126186 -8.35035e-05 0)
(-0.00114166 -8.08492e-05 0)
(-0.00102543 -7.79816e-05 0)
(-0.000913485 -7.49022e-05 0)
(-0.000806113 -7.16131e-05 0)
(-0.000703611 -6.81172e-05 0)
(-0.000606266 -6.44183e-05 0)
(-0.00051436 -6.05215e-05 0)
(-0.000428164 -5.6433e-05 0)
(-0.000347936 -5.21607e-05 0)
(-0.000273922 -4.7714e-05 0)
(-0.000206347 -4.31051e-05 0)
(-0.00014542 -3.83488e-05 0)
(-9.13188e-05 -3.34631e-05 0)
(-4.41929e-05 -2.84703e-05 0)
(-4.15055e-06 -2.33989e-05 0)
(2.87472e-05 -1.82845e-05 0)
(5.44983e-05 -1.31715e-05 0)
(7.31754e-05 -8.11697e-06 0)
(8.49449e-05 -3.1949e-06 0)
(9.00914e-05 1.49746e-06 0)
(8.90495e-05 5.83143e-06 0)
(8.2447e-05 9.63319e-06 0)
(7.11609e-05 1.26654e-05 0)
(5.63837e-05 1.46077e-05 0)
(3.9673e-05 1.50373e-05 0)
(2.30128e-05 1.34157e-05 0)
(9.18147e-06 9.1859e-06 0)
(1.69494e-06 2.64425e-06 0)
(2.82369e-06 -9.09311e-06 0)
(1.34031e-05 -2.3165e-05 0)
(3.10613e-05 -3.10672e-05 0)
(5.08252e-05 -3.31265e-05 0)
(6.90939e-05 -3.04452e-05 0)
(8.3307e-05 -2.41144e-05 0)
(9.13821e-05 -1.50611e-05 0)
(9.16774e-05 -4.03148e-06 0)
(8.29603e-05 8.39315e-06 0)
(6.43376e-05 2.17656e-05 0)
(3.5188e-05 3.57421e-05 0)
(-4.88971e-06 5.00563e-05 0)
(-5.61192e-05 6.45006e-05 0)
(-0.000118581 7.89125e-05 0)
(-0.00019224 9.31645e-05 0)
(-0.000276968 0.000107156 0)
(-0.000372562 0.000120807 0)
(-0.000478759 0.000134054 0)
(-0.000595246 0.000146846 0)
(-0.00072167 0.000159143 0)
(-0.000857646 0.000170914 0)
(-0.00100276 0.000182134 0)
(-0.00115659 0.000192785 0)
(-0.00131869 0.000202852 0)
(-0.00148859 0.000212324 0)
(-0.00166583 0.000221196 0)
(-0.00184993 0.000229462 0)
(-0.00204042 0.000237121 0)
(-0.00223681 0.000244172 0)
(-0.00243863 0.000250618 0)
(-0.00264539 0.000256462 0)
(-0.00285661 0.000261708 0)
(-0.00307182 0.000266361 0)
(-0.00329054 0.000270428 0)
(-0.0035123 0.000273916 0)
(-0.00373665 0.000276834 0)
(-0.00396313 0.000279188 0)
(-0.00419129 0.000280989 0)
(-0.00442067 0.000282246 0)
(-0.00465086 0.000282969 0)
(-0.00488141 0.000283168 0)
(-0.00511191 0.000282854 0)
(-0.00534195 0.000282036 0)
(-0.00557113 0.000280726 0)
(-0.00579904 0.000278936 0)
(-0.0060253 0.000276676 0)
(-0.00624954 0.000273959 0)
(-0.00647139 0.000270795 0)
(-0.00669048 0.000267196 0)
(-0.00690648 0.000263174 0)
(-0.00711903 0.000258741 0)
(-0.00732782 0.000253909 0)
(-0.00753251 0.00024869 0)
(-0.0077328 0.000243096 0)
(-0.00792839 0.000237139 0)
(-0.00811898 0.000230831 0)
(-0.0083043 0.000224185 0)
(-0.00848407 0.000217212 0)
(-0.00865803 0.000209925 0)
(-0.00882594 0.000202337 0)
(-0.00898754 0.00019446 0)
(-0.00914261 0.000186306 0)
(-0.00929093 0.000177887 0)
(-0.00943228 0.000169218 0)
(-0.00956648 0.000160309 0)
(-0.00969332 0.000151174 0)
(-0.00981262 0.000141825 0)
(-0.00992423 0.000132276 0)
(-0.010028 0.00012254 0)
(-0.0101237 0.000112629 0)
(-0.0102113 0.000102556 0)
(-0.0102906 9.23356e-05 0)
(-0.0103616 8.198e-05 0)
(-0.010424 7.15029e-05 0)
(-0.0104779 6.0918e-05 0)
(-0.0105231 5.02388e-05 0)
(-0.0105595 3.94792e-05 0)
(-0.0105872 2.8653e-05 0)
(-0.010606 1.77742e-05 0)
(-0.010616 6.857e-06 0)
(-0.010617 -4.08437e-06 0)
(-0.0106091 -1.50355e-05 0)
(-0.0105923 -2.5982e-05 0)
(-0.0105666 -3.6909e-05 0)
(-0.010532 -4.78019e-05 0)
(-0.0104886 -5.86458e-05 0)
(-0.0104363 -6.94257e-05 0)
(-0.0103753 -8.01264e-05 0)
(-0.0103056 -9.07328e-05 0)
(-0.0102274 -0.00010123 0)
(-0.0101406 -0.000111601 0)
(-0.0100455 -0.000121832 0)
(-0.00994204 -0.000131907 0)
(-0.00983051 -0.00014181 0)
(-0.00971099 -0.000151525 0)
(-0.00958365 -0.000161037 0)
(-0.00944866 -0.00017033 0)
(-0.00930621 -0.000179388 0)
(-0.00915649 -0.000188195 0)
(-0.00899972 -0.000196736 0)
(-0.00883612 -0.000204994 0)
(-0.00866593 -0.000212954 0)
(-0.0084894 -0.0002206 0)
(-0.00830679 -0.000227917 0)
(-0.00811837 -0.00023489 0)
(-0.00792443 -0.000241502 0)
(-0.00772528 -0.000247739 0)
(-0.00752122 -0.000253585 0)
(-0.00731257 -0.000259026 0)
(-0.00709968 -0.000264048 0)
(-0.00688288 -0.000268636 0)
(-0.00666255 -0.000272776 0)
(-0.00643903 -0.000276454 0)
(-0.00621273 -0.000279656 0)
(-0.00598402 -0.000282371 0)
(-0.00575332 -0.000284584 0)
(-0.00552102 -0.000286285 0)
(-0.00528755 -0.000287461 0)
(-0.00505334 -0.000288101 0)
(-0.00481883 -0.000288195 0)
(-0.00458446 -0.000287731 0)
(-0.00435069 -0.000286702 0)
(-0.00411797 -0.000285098 0)
(-0.00388678 -0.00028291 0)
(-0.00365758 -0.000280133 0)
(-0.00343085 -0.000276759 0)
(-0.00320708 -0.000272783 0)
(-0.00298675 -0.000268201 0)
(-0.00277034 -0.000263008 0)
(-0.00255836 -0.000257203 0)
(-0.00235128 -0.000250785 0)
(-0.00214959 -0.000243753 0)
(-0.00195378 -0.000236111 0)
(-0.00176435 -0.000227861 0)
(-0.00158175 -0.00021901 0)
(-0.00140647 -0.000209565 0)
(-0.00123896 -0.000199537 0)
(-0.00107969 -0.00018894 0)
(-0.000929077 -0.00017779 0)
(-0.00078755 -0.000166108 0)
(-0.000655504 -0.00015392 0)
(-0.000533313 -0.000141257 0)
(-0.000421318 -0.000128159 0)
(-0.000319824 -0.000114671 0)
(-0.00022909 -0.000100852 0)
(-0.000149322 -8.6771e-05 0)
(-8.06603e-05 -7.2514e-05 0)
(-2.31662e-05 -5.81885e-05 0)
(2.31962e-05 -4.39273e-05 0)
(5.85805e-05 -2.98966e-05 0)
(8.32853e-05 -1.63067e-05 0)
(9.77873e-05 -3.42528e-06 0)
(0.000102782 8.40516e-06 0)
(9.92331e-05 1.87432e-05 0)
(8.8434e-05 2.70213e-05 0)
(7.20729e-05 3.25194e-05 0)
(5.22535e-05 3.43551e-05 0)
(3.1522e-05 3.15119e-05 0)
(1.34146e-05 2.3017e-05 0)
(2.77657e-06 8.77521e-06 0)
(3.20543e-06 -1.69361e-05 0)
(1.47487e-05 -3.94136e-05 0)
(3.32029e-05 -5.08427e-05 0)
(5.27029e-05 -5.25937e-05 0)
(6.91464e-05 -4.6405e-05 0)
(7.9623e-05 -3.39497e-05 0)
(8.17184e-05 -1.66878e-05 0)
(7.34817e-05 4.1682e-06 0)
(5.3407e-05 2.76383e-05 0)
(2.03676e-05 5.29401e-05 0)
(-2.64457e-05 7.9452e-05 0)
(-8.75771e-05 0.000106681 0)
(-0.00016335 0.000134233 0)
(-0.000253905 0.000161797 0)
(-0.000359233 0.000189121 0)
(-0.000479199 0.000216006 0)
(-0.000613568 0.000242289 0)
(-0.000762022 0.00026784 0)
(-0.000924172 0.000292555 0)
(-0.00109957 0.00031635 0)
(-0.00128773 0.000339158 0)
(-0.00148812 0.000360926 0)
(-0.00170018 0.000381613 0)
(-0.00192333 0.000401186 0)
(-0.00215696 0.000419621 0)
(-0.00240046 0.000436902 0)
(-0.0026532 0.000453016 0)
(-0.00291454 0.000467958 0)
(-0.00318384 0.000481724 0)
(-0.00346046 0.000494316 0)
(-0.00374375 0.000505737 0)
(-0.00403307 0.000515996 0)
(-0.00432778 0.0005251 0)
(-0.00462724 0.000533061 0)
(-0.00493082 0.000539891 0)
(-0.00523789 0.000545605 0)
(-0.00554784 0.000550217 0)
(-0.00586006 0.000553746 0)
(-0.00617394 0.000556208 0)
(-0.0064889 0.000557623 0)
(-0.00680434 0.000558008 0)
(-0.00711971 0.000557385 0)
(-0.00743443 0.000555774 0)
(-0.00774797 0.000553195 0)
(-0.00805977 0.00054967 0)
(-0.00836931 0.000545221 0)
(-0.00867608 0.000539871 0)
(-0.00897958 0.000533641 0)
(-0.00927932 0.000526555 0)
(-0.00957481 0.000518635 0)
(-0.0098656 0.000509905 0)
(-0.0101512 0.000500387 0)
(-0.0104313 0.000490106 0)
(-0.0107053 0.000479085 0)
(-0.0109728 0.000467347 0)
(-0.0112336 0.000454918 0)
(-0.0114871 0.00044182 0)
(-0.0117331 0.000428078 0)
(-0.011971 0.000413716 0)
(-0.0122007 0.000398759 0)
(-0.0124218 0.000383231 0)
(-0.0126339 0.000367157 0)
(-0.0128368 0.000350561 0)
(-0.0130302 0.000333468 0)
(-0.0132137 0.000315904 0)
(-0.0133872 0.000297894 0)
(-0.0135504 0.000279462 0)
(-0.0137031 0.000260634 0)
(-0.0138449 0.000241437 0)
(-0.0139759 0.000221895 0)
(-0.0140956 0.000202035 0)
(-0.0142041 0.000181883 0)
(-0.0143011 0.000161465 0)
(-0.0143864 0.000140808 0)
(-0.01446 0.000119939 0)
(-0.0145218 9.88839e-05 0)
(-0.0145715 7.76713e-05 0)
(-0.0146093 5.63282e-05 0)
(-0.0146349 3.48823e-05 0)
(-0.0146484 1.33615e-05 0)
(-0.0146498 -8.20597e-06 0)
(-0.0146389 -2.97916e-05 0)
(-0.0146158 -5.13668e-05 0)
(-0.0145805 -7.29025e-05 0)
(-0.014533 -9.43697e-05 0)
(-0.0144735 -0.000115739 0)
(-0.0144019 -0.00013698 0)
(-0.0143183 -0.000158065 0)
(-0.0142229 -0.000178961 0)
(-0.0141157 -0.00019964 0)
(-0.013997 -0.000220071 0)
(-0.0138667 -0.000240224 0)
(-0.0137252 -0.000260067 0)
(-0.0135725 -0.000279569 0)
(-0.013409 -0.000298701 0)
(-0.0132347 -0.00031743 0)
(-0.01305 -0.000335727 0)
(-0.0128551 -0.000353559 0)
(-0.0126503 -0.000370895 0)
(-0.0124358 -0.000387705 0)
(-0.0122121 -0.000403958 0)
(-0.0119793 -0.000419623 0)
(-0.0117378 -0.000434668 0)
(-0.0114881 -0.000449064 0)
(-0.0112304 -0.00046278 0)
(-0.0109652 -0.000475787 0)
(-0.0106928 -0.000488054 0)
(-0.0104138 -0.000499552 0)
(-0.0101285 -0.000510252 0)
(-0.00983742 -0.000520127 0)
(-0.009541 -0.000529147 0)
(-0.00923975 -0.000537286 0)
(-0.00893416 -0.000544516 0)
(-0.00862476 -0.000550813 0)
(-0.00831208 -0.00055615 0)
(-0.00799666 -0.000560503 0)
(-0.00767907 -0.000563849 0)
(-0.00735987 -0.000566165 0)
(-0.00703965 -0.00056743 0)
(-0.006719 -0.000567622 0)
(-0.00639853 -0.000566724 0)
(-0.00607886 -0.000564717 0)
(-0.0057606 -0.000561584 0)
(-0.0054444 -0.000557311 0)
(-0.00513088 -0.000551884 0)
(-0.0048207 -0.000545292 0)
(-0.00451451 -0.000537524 0)
(-0.00421296 -0.000528574 0)
(-0.00391671 -0.000518435 0)
(-0.00362641 -0.000507104 0)
(-0.00334273 -0.000494581 0)
(-0.00306631 -0.000480868 0)
(-0.00279782 -0.000465972 0)
(-0.0025379 -0.000449901 0)
(-0.00228719 -0.000432669 0)
(-0.0020463 -0.000414294 0)
(-0.00181586 -0.0003948 0)
(-0.00159645 -0.000374216 0)
(-0.00138866 -0.000352578 0)
(-0.00119303 -0.000329932 0)
(-0.00101007 -0.000306332 0)
(-0.000840268 -0.000281844 0)
(-0.000684055 -0.000256547 0)
(-0.000541815 -0.000230539 0)
(-0.000413866 -0.000203938 0)
(-0.000300453 -0.000176883 0)
(-0.00020173 -0.000149549 0)
(-0.000117747 -0.000122146 0)
(-4.84207e-05 -9.49333e-05 0)
(6.48045e-06 -6.82309e-05 0)
(4.73743e-05 -4.24349e-05 0)
(7.48989e-05 -1.80386e-05 0)
(8.99544e-05 4.34229e-06 0)
(9.37517e-05 2.39395e-05 0)
(8.78713e-05 3.97998e-05 0)
(7.43196e-05 5.07557e-05 0)
(5.5539e-05 5.54247e-05 0)
(3.44316e-05 5.22539e-05 0)
(1.50594e-05 3.9691e-05 0)
(3.2143e-06 1.6671e-05 0)
(3.1336e-06 -2.49129e-05 0)
(1.4041e-05 -5.53552e-05 0)
(3.06608e-05 -6.91906e-05 0)
(4.67532e-05 -6.90755e-05 0)
(5.79352e-05 -5.75231e-05 0)
(6.10749e-05 -3.68369e-05 0)
(5.35629e-05 -9.02536e-06 0)
(3.32641e-05 2.42193e-05 0)
(-1.50234e-06 6.14974e-05 0)
(-5.20205e-05 0.000101665 0)
(-0.000119235 0.00014379 0)
(-0.000203797 0.00018712 0)
(-0.000306112 0.000231043 0)
(-0.000426372 0.000275065 0)
(-0.000564593 0.000318782 0)
(-0.000720644 0.000361869 0)
(-0.000894267 0.000404058 0)
(-0.0010851 0.000445133 0)
(-0.0012927 0.000484919 0)
(-0.00151655 0.000523271 0)
(-0.00175606 0.000560074 0)
(-0.0020106 0.000595237 0)
(-0.00227951 0.000628685 0)
(-0.00256208 0.000660361 0)
(-0.00285758 0.00069022 0)
(-0.00316527 0.00071823 0)
(-0.00348438 0.000744367 0)
(-0.00381413 0.000768617 0)
(-0.00415373 0.000790972 0)
(-0.00450239 0.000811431 0)
(-0.00485932 0.000829997 0)
(-0.00522372 0.000846678 0)
(-0.00559481 0.000861487 0)
(-0.00597178 0.00087444 0)
(-0.00635387 0.000885555 0)
(-0.00674029 0.000894854 0)
(-0.00713028 0.00090236 0)
(-0.00752307 0.000908099 0)
(-0.00791791 0.000912099 0)
(-0.00831407 0.000914389 0)
(-0.00871083 0.000914998 0)
(-0.00910746 0.00091396 0)
(-0.00950326 0.000911306 0)
(-0.00989755 0.000907069 0)
(-0.0102896 0.000901285 0)
(-0.0106789 0.000893989 0)
(-0.0110647 0.000885215 0)
(-0.0114463 0.000875001 0)
(-0.0118232 0.000863384 0)
(-0.0121948 0.0008504 0)
(-0.0125604 0.000836087 0)
(-0.0129195 0.000820483 0)
(-0.0132716 0.000803627 0)
(-0.0136162 0.000785556 0)
(-0.0139526 0.000766311 0)
(-0.0142805 0.000745929 0)
(-0.0145992 0.000724451 0)
(-0.0149084 0.000701915 0)
(-0.0152077 0.000678362 0)
(-0.0154965 0.000653832 0)
(-0.0157744 0.000628364 0)
(-0.0160411 0.000601999 0)
(-0.0162962 0.000574779 0)
(-0.0165393 0.000546743 0)
(-0.01677 0.000517932 0)
(-0.0169881 0.000488389 0)
(-0.0171932 0.000458155 0)
(-0.0173851 0.000427272 0)
(-0.0175634 0.000395781 0)
(-0.017728 0.000363725 0)
(-0.0178785 0.000331148 0)
(-0.0180147 0.000298092 0)
(-0.0181366 0.0002646 0)
(-0.0182438 0.000230717 0)
(-0.0183362 0.000196486 0)
(-0.0184138 0.000161952 0)
(-0.0184762 0.00012716 0)
(-0.0185236 9.21551e-05 0)
(-0.0185557 5.69826e-05 0)
(-0.0185726 2.16886e-05 0)
(-0.0185741 -1.36804e-05 0)
(-0.0185603 -4.90776e-05 0)
(-0.0185311 -8.4456e-05 0)
(-0.0184866 -0.000119768 0)
(-0.0184268 -0.000154966 0)
(-0.0183518 -0.000190001 0)
(-0.0182617 -0.000224825 0)
(-0.0181565 -0.000259389 0)
(-0.0180365 -0.000293643 0)
(-0.0179016 -0.000327539 0)
(-0.0177522 -0.000361025 0)
(-0.0175883 -0.000394053 0)
(-0.0174103 -0.000426571 0)
(-0.0172183 -0.00045853 0)
(-0.0170126 -0.000489878 0)
(-0.0167935 -0.000520564 0)
(-0.0165612 -0.000550539 0)
(-0.0163162 -0.000579751 0)
(-0.0160587 -0.00060815 0)
(-0.015789 -0.000635684 0)
(-0.0155077 -0.000662303 0)
(-0.0152151 -0.000687956 0)
(-0.0149116 -0.000712594 0)
(-0.0145976 -0.000736167 0)
(-0.0142737 -0.000758626 0)
(-0.0139404 -0.00077992 0)
(-0.0135981 -0.000800003 0)
(-0.0132474 -0.000818827 0)
(-0.0128889 -0.000836343 0)
(-0.012523 -0.000852507 0)
(-0.0121505 -0.000867273 0)
(-0.0117719 -0.000880597 0)
(-0.0113879 -0.000892434 0)
(-0.0109991 -0.000902745 0)
(-0.0106061 -0.000911486 0)
(-0.0102097 -0.00091862 0)
(-0.00981055 -0.000924109 0)
(-0.00940937 -0.000927915 0)
(-0.00900689 -0.000930006 0)
(-0.00860386 -0.000930347 0)
(-0.00820101 -0.000928909 0)
(-0.00779913 -0.000925664 0)
(-0.007399 -0.000920585 0)
(-0.00700138 -0.000913649 0)
(-0.0066071 -0.000904836 0)
(-0.00621693 -0.000894128 0)
(-0.0058317 -0.00088151 0)
(-0.00545222 -0.000866971 0)
(-0.00507929 -0.000850505 0)
(-0.00471374 -0.000832108 0)
(-0.00435637 -0.000811782 0)
(-0.004008 -0.000789532 0)
(-0.00366943 -0.000765372 0)
(-0.00334144 -0.00073932 0)
(-0.00302482 -0.0007114 0)
(-0.00272034 -0.000681646 0)
(-0.00242875 -0.0006501 0)
(-0.00215075 -0.000616813 0)
(-0.00188706 -0.000581852 0)
(-0.00163832 -0.000545292 0)
(-0.00140515 -0.000507228 0)
(-0.00118813 -0.000467774 0)
(-0.000987766 -0.000427065 0)
(-0.000804503 -0.000385264 0)
(-0.000638705 -0.000342565 0)
(-0.000490644 -0.000299205 0)
(-0.000360482 -0.000255466 0)
(-0.000248249 -0.000211689 0)
(-0.000153823 -0.000168289 0)
(-7.69034e-05 -0.000125771 0)
(-1.69758e-05 -8.47503e-05 0)
(2.67202e-05 -4.59772e-05 0)
(5.52332e-05 -1.03716e-05 0)
(6.99445e-05 2.09461e-05 0)
(7.26188e-05 4.66186e-05 0)
(6.54598e-05 6.502e-05 0)
(5.11187e-05 7.42475e-05 0)
(3.27332e-05 7.2157e-05 0)
(1.46808e-05 5.64661e-05 0)
(3.20285e-06 2.48706e-05 0)
(2.77164e-06 -3.20853e-05 0)
(1.18539e-05 -6.90303e-05 0)
(2.45307e-05 -8.3594e-05 0)
(3.46446e-05 -7.97119e-05 0)
(3.7748e-05 -6.0727e-05 0)
(3.05952e-05 -2.95977e-05 0)
(1.04803e-05 1.1112e-05 0)
(-2.48262e-05 5.92253e-05 0)
(-7.71014e-05 0.000112918 0)
(-0.000147724 0.000170671 0)
(-0.000237722 0.00023123 0)
(-0.000347822 0.000293561 0)
(-0.000478481 0.000356812 0)
(-0.000629933 0.000420284 0)
(-0.000802212 0.000483402 0)
(-0.000995188 0.000545689 0)
(-0.00120859 0.000606757 0)
(-0.00144202 0.000666285 0)
(-0.00169498 0.000724009 0)
(-0.00196689 0.000779713 0)
(-0.00225709 0.000833221 0)
(-0.00256488 0.000884391 0)
(-0.00288947 0.000933106 0)
(-0.00323008 0.000979276 0)
(-0.00358585 0.00102283 0)
(-0.00395593 0.00106371 0)
(-0.00433941 0.00110188 0)
(-0.0047354 0.00113732 0)
(-0.00514297 0.00117 0)
(-0.00556121 0.00119992 0)
(-0.00598918 0.00122708 0)
(-0.00642594 0.0012515 0)
(-0.00687058 0.00127318 0)
(-0.00732215 0.00129214 0)
(-0.00777974 0.00130841 0)
(-0.00824242 0.00132202 0)
(-0.0087093 0.00133301 0)
(-0.00917946 0.0013414 0)
(-0.00965203 0.00134723 0)
(-0.0101261 0.00135055 0)
(-0.0106009 0.0013514 0)
(-0.0110754 0.00134983 0)
(-0.011549 0.00134588 0)
(-0.0120207 0.0013396 0)
(-0.0124898 0.00133104 0)
(-0.0129554 0.00132025 0)
(-0.0134169 0.00130728 0)
(-0.0138734 0.00129219 0)
(-0.0143242 0.00127502 0)
(-0.0147686 0.00125584 0)
(-0.015206 0.0012347 0)
(-0.0156355 0.00121165 0)
(-0.0160567 0.00118676 0)
(-0.0164687 0.00116007 0)
(-0.0168711 0.00113164 0)
(-0.0172632 0.00110154 0)
(-0.0176445 0.00106982 0)
(-0.0180143 0.00103653 0)
(-0.0183721 0.00100174 0)
(-0.0187175 0.000965504 0)
(-0.0190499 0.000927884 0)
(-0.0193688 0.000888939 0)
(-0.0196738 0.000848728 0)
(-0.0199645 0.000807313 0)
(-0.0202404 0.000764753 0)
(-0.0205011 0.000721111 0)
(-0.0207464 0.000676448 0)
(-0.0209758 0.000630825 0)
(-0.021189 0.000584305 0)
(-0.0213856 0.000536951 0)
(-0.0215656 0.000488827 0)
(-0.0217284 0.000439996 0)
(-0.021874 0.000390523 0)
(-0.0220021 0.000340472 0)
(-0.0221126 0.000289908 0)
(-0.0222052 0.000238898 0)
(-0.0222798 0.000187509 0)
(-0.0223363 0.000135806 0)
(-0.0223746 8.3857e-05 0)
(-0.0223946 3.1731e-05 0)
(-0.0223963 -2.05039e-05 0)
(-0.0223796 -7.27785e-05 0)
(-0.0223446 -0.000125023 0)
(-0.0222912 -0.000177167 0)
(-0.0222196 -0.00022914 0)
(-0.0221298 -0.00028087 0)
(-0.0220219 -0.000332286 0)
(-0.021896 -0.000383316 0)
(-0.0217523 -0.000433885 0)
(-0.0215909 -0.000483922 0)
(-0.0214121 -0.000533353 0)
(-0.0212161 -0.000582103 0)
(-0.0210031 -0.000630098 0)
(-0.0207734 -0.000677265 0)
(-0.0205274 -0.000723528 0)
(-0.0202653 -0.000768812 0)
(-0.0199875 -0.000813043 0)
(-0.0196945 -0.000856146 0)
(-0.0193865 -0.000898046 0)
(-0.0190641 -0.000938668 0)
(-0.0187277 -0.000977938 0)
(-0.0183778 -0.00101578 0)
(-0.0180149 -0.00105213 0)
(-0.0176395 -0.0010869 0)
(-0.0172523 -0.00112002 0)
(-0.0168537 -0.00115143 0)
(-0.0164445 -0.00118105 0)
(-0.0160252 -0.00120881 0)
(-0.0155966 -0.00123465 0)
(-0.0151592 -0.00125849 0)
(-0.0147139 -0.00128027 0)
(-0.0142613 -0.00129993 0)
(-0.0138022 -0.00131739 0)
(-0.0133373 -0.00133261 0)
(-0.0128675 -0.00134552 0)
(-0.0123936 -0.00135606 0)
(-0.0119163 -0.00136418 0)
(-0.0114366 -0.00136983 0)
(-0.0109554 -0.00137296 0)
(-0.0104734 -0.00137352 0)
(-0.00999157 -0.00137146 0)
(-0.00951088 -0.00136675 0)
(-0.00903221 -0.00135935 0)
(-0.00855648 -0.00134922 0)
(-0.00808465 -0.00133635 0)
(-0.00761767 -0.0013207 0)
(-0.00715647 -0.00130225 0)
(-0.00670203 -0.001281 0)
(-0.0062553 -0.00125693 0)
(-0.00581724 -0.00123004 0)
(-0.0053888 -0.00120033 0)
(-0.00497094 -0.00116783 0)
(-0.00456458 -0.00113255 0)
(-0.00417067 -0.00109452 0)
(-0.00379011 -0.00105378 0)
(-0.00342378 -0.00101038 0)
(-0.00307257 -0.000964403 0)
(-0.00273729 -0.000915917 0)
(-0.00241876 -0.000865025 0)
(-0.00211773 -0.000811847 0)
(-0.0018349 -0.000756528 0)
(-0.00157092 -0.000699239 0)
(-0.00132637 -0.000640185 0)
(-0.00110174 -0.00057961 0)
(-0.000897442 -0.000517804 0)
(-0.000713764 -0.000455113 0)
(-0.000550873 -0.00039195 0)
(-0.000408785 -0.000328808 0)
(-0.000287346 -0.000266281 0)
(-0.000186203 -0.000205078 0)
(-0.000104774 -0.000146055 0)
(-4.22125e-05 -9.02411e-05 0)
(2.62602e-06 -3.88737e-05 0)
(3.12292e-05 6.56427e-06 0)
(4.54705e-05 4.43039e-05 0)
(4.76603e-05 7.22573e-05 0)
(4.05647e-05 8.799e-05 0)
(2.74579e-05 8.87309e-05 0)
(1.28224e-05 7.13988e-05 0)
(2.89906e-06 3.24395e-05 0)
(2.22759e-06 -3.78127e-05 0)
(8.62782e-06 -7.89271e-05 0)
(1.57327e-05 -9.20092e-05 0)
(1.78162e-05 -8.21357e-05 0)
(1.0557e-05 -5.34549e-05 0)
(-9.30629e-06 -9.5725e-06 0)
(-4.44963e-05 4.6398e-05 0)
(-9.72642e-05 0.000111803 0)
(-0.000169421 0.000184394 0)
(-0.000262385 0.000262283 0)
(-0.000377226 0.000343882 0)
(-0.000514707 0.00042787 0)
(-0.000675317 0.000513143 0)
(-0.000859308 0.000598781 0)
(-0.00106673 0.00068402 0)
(-0.00129743 0.000768223 0)
(-0.00155114 0.00085086 0)
(-0.00182742 0.000931493 0)
(-0.00212574 0.00100976 0)
(-0.00244546 0.00108535 0)
(-0.00278585 0.00115803 0)
(-0.00314613 0.00122758 0)
(-0.00352545 0.00129385 0)
(-0.00392291 0.00135669 0)
(-0.00433756 0.00141602 0)
(-0.00476845 0.00147173 0)
(-0.00521456 0.00152378 0)
(-0.00567487 0.00157212 0)
(-0.00614836 0.00161673 0)
(-0.00663397 0.00165758 0)
(-0.00713064 0.00169467 0)
(-0.00763732 0.00172802 0)
(-0.00815295 0.00175763 0)
(-0.00867647 0.00178353 0)
(-0.00920683 0.00180576 0)
(-0.00974297 0.00182434 0)
(-0.0102839 0.00183933 0)
(-0.0108285 0.00185076 0)
(-0.0113758 0.00185869 0)
(-0.0119248 0.00186317 0)
(-0.0124745 0.00186426 0)
(-0.013024 0.00186201 0)
(-0.0135722 0.0018565 0)
(-0.0141183 0.00184779 0)
(-0.0146612 0.00183593 0)
(-0.0152002 0.00182102 0)
(-0.0157343 0.0018031 0)
(-0.0162626 0.00178226 0)
(-0.0167844 0.00175857 0)
(-0.0172987 0.0017321 0)
(-0.0178048 0.00170292 0)
(-0.0183019 0.00167112 0)
(-0.0187892 0.00163677 0)
(-0.019266 0.00159995 0)
(-0.0197316 0.00156073 0)
(-0.0201853 0.0015192 0)
(-0.0206264 0.00147543 0)
(-0.0210543 0.00142951 0)
(-0.0214683 0.00138152 0)
(-0.0218679 0.00133153 0)
(-0.0222525 0.00127963 0)
(-0.0226214 0.0012259 0)
(-0.0229743 0.00117042 0)
(-0.0233105 0.00111329 0)
(-0.0236297 0.00105457 0)
(-0.0239314 0.000994361 0)
(-0.024215 0.000932743 0)
(-0.0244803 0.000869802 0)
(-0.0247269 0.000805624 0)
(-0.0249544 0.000740296 0)
(-0.0251624 0.000673906 0)
(-0.0253507 0.000606542 0)
(-0.0255191 0.000538292 0)
(-0.0256672 0.000469248 0)
(-0.0257948 0.000399498 0)
(-0.0259018 0.000329133 0)
(-0.025988 0.000258247 0)
(-0.0260532 0.000186931 0)
(-0.0260974 0.000115278 0)
(-0.0261204 4.33829e-05 0)
(-0.0261222 -2.86599e-05 0)
(-0.0261028 -0.000100755 0)
(-0.0260621 -0.000172805 0)
(-0.0260003 -0.000244715 0)
(-0.0259173 -0.000316385 0)
(-0.0258132 -0.000387717 0)
(-0.0256882 -0.000458613 0)