/*--------------------------------*- C++ -*----------------------------------*\
  =========                 |
  \\      /  F ield         | OpenFOAM: The Open Source CFD Toolbox
   \\    /   O peration     | Website:  https://openfoam.org
    \\  /    A nd           | Version:  7
     \\/     M anipulation  |
\*---------------------------------------------------------------------------*/
FoamFile
{
    version     2.0;
    format      ascii;
    class       surfaceScalarField;
    location    "0.2";
    object      phi;
}
// * * * * * * * * * * * * * * * * * * * * * * * * * * * * * * * * * * * * * //

dimensions      [0 3 -1 0 0 0 0];

internalField   nonuniform List<scalar> 
50880
(
6.1316e-12
-6.13374e-12
3.62279e-11
-3.00943e-11
8.1002e-11
-4.4778e-11
1.30491e-10
-4.94883e-11
1.77554e-10
-4.70679e-11
2.17226e-10
-3.9674e-11
2.46086e-10
-2.88579e-11
2.61817e-10
-1.57315e-11
2.62903e-10
-1.08557e-12
2.48379e-10
1.45236e-11
2.17691e-10
3.06905e-11
1.70579e-10
4.71123e-11
1.07007e-10
6.35707e-11
2.71116e-11
7.98937e-11
-6.88404e-11
9.59528e-11
-1.80487e-10
1.11647e-10
-3.07387e-10
1.26898e-10
-4.49035e-10
1.41646e-10
-6.04879e-10
1.55844e-10
-7.74334e-10
1.69454e-10
-9.56786e-10
1.82452e-10
-1.1516e-09
1.94812e-10
-1.35812e-09
2.0652e-10
-1.57568e-09
2.17565e-10
-1.80362e-09
2.27941e-10
-2.04127e-09
2.37642e-10
-2.28794e-09
2.4667e-10
-2.54296e-09
2.55023e-10
-2.80567e-09
2.62706e-10
-3.07539e-09
2.69718e-10
-3.35146e-09
2.76073e-10
-3.63323e-09
2.81767e-10
-3.92004e-09
2.86815e-10
-4.21126e-09
2.91221e-10
-4.50626e-09
2.94994e-10
-4.80441e-09
2.98148e-10
-5.1051e-09
3.0069e-10
-5.40773e-09
3.02631e-10
-5.71171e-09
3.03984e-10
-6.01647e-09
3.04759e-10
-6.32143e-09
3.04966e-10
-6.62605e-09
3.04618e-10
-6.92978e-09
3.03726e-10
-7.23208e-09
3.02304e-10
-7.53245e-09
3.00363e-10
-7.83036e-09
2.97917e-10
-8.12534e-09
2.94978e-10
-8.41691e-09
2.91559e-10
-8.70458e-09
2.87673e-10
-8.98792e-09
2.83333e-10
-9.26647e-09
2.78551e-10
-9.53981e-09
2.7334e-10
-9.80752e-09
2.67713e-10
-1.00692e-08
2.61684e-10
-1.03245e-08
2.55263e-10
-1.05729e-08
2.48468e-10
-1.08142e-08
2.41309e-10
-1.1048e-08
2.33801e-10
-1.1274e-08
2.25956e-10
-1.14918e-08
2.17786e-10
-1.17011e-08
2.09307e-10
-1.19016e-08
2.00532e-10
-1.20931e-08
1.91474e-10
-1.22752e-08
1.82147e-10
-1.24478e-08
1.72562e-10
-1.26105e-08
1.62735e-10
-1.27632e-08
1.5268e-10
-1.29056e-08
1.42409e-10
-1.30376e-08
1.31937e-10
-1.31588e-08
1.21278e-10
-1.32693e-08
1.10445e-10
-1.33687e-08
9.94525e-11
-1.34571e-08
8.83139e-11
-1.35341e-08
7.70449e-11
-1.35998e-08
6.56604e-11
-1.36539e-08
5.4174e-11
-1.36965e-08
4.26003e-11
-1.37275e-08
3.09552e-11
-1.37467e-08
1.92536e-11
-1.37543e-08
7.5099e-12
-1.375e-08
-4.26084e-12
-1.3734e-08
-1.60433e-11
-1.37061e-08
-2.78216e-11
-1.36666e-08
-3.95799e-11
-1.36152e-08
-5.13033e-11
-1.35523e-08
-6.2976e-11
-1.34777e-08
-7.45808e-11
-1.33916e-08
-8.61002e-11
-1.32941e-08
-9.75193e-11
-1.31852e-08
-1.08823e-10
-1.30653e-08
-1.19995e-10
-1.29342e-08
-1.31016e-10
-1.27924e-08
-1.41869e-10
-1.26398e-08
-1.52539e-10
-1.24768e-08
-1.63009e-10
-1.23036e-08
-1.73263e-10
-1.21203e-08
-1.83282e-10
-1.19272e-08
-1.93048e-10
-1.17247e-08
-2.02546e-10
-1.15129e-08
-2.11759e-10
-1.12923e-08
-2.20669e-10
-1.1063e-08
-2.2926e-10
-1.08255e-08
-2.37512e-10
-1.05801e-08
-2.45412e-10
-1.03271e-08
-2.52942e-10
-1.0067e-08
-2.60086e-10
-9.8002e-09
-2.66827e-10
-9.52706e-09
-2.73146e-10
-9.24803e-09
-2.79029e-10
-8.96357e-09
-2.84459e-10
-8.67415e-09
-2.89422e-10
-8.38025e-09
-2.93902e-10
-8.08236e-09
-2.97884e-10
-7.78101e-09
-3.01353e-10
-7.47671e-09
-3.04294e-10
-7.17002e-09
-3.06695e-10
-6.86147e-09
-3.08541e-10
-6.55165e-09
-3.0982e-10
-6.24114e-09
-3.10518e-10
-5.93051e-09
-3.10624e-10
-5.62039e-09
-3.10125e-10
-5.31138e-09
-3.09014e-10
-5.0041e-09
-3.07277e-10
-4.69919e-09
-3.04907e-10
-4.3973e-09
-3.01893e-10
-4.09907e-09
-2.98228e-10
-3.80516e-09
-2.93908e-10
-3.51623e-09
-2.88925e-10
-3.23296e-09
-2.83274e-10
-2.95601e-09
-2.76951e-10
-2.68606e-09
-2.69953e-10
-2.42378e-09
-2.62278e-10
-2.16985e-09
-2.53929e-10
-1.92494e-09
-2.44906e-10
-1.68972e-09
-2.35216e-10
-1.46486e-09
-2.24864e-10
-1.251e-09
-2.13858e-10
-1.04879e-09
-2.02209e-10
-8.58857e-10
-1.89932e-10
-6.81811e-10
-1.77044e-10
-5.18238e-10
-1.63572e-10
-3.68695e-10
-1.49543e-10
-2.33703e-10
-1.34993e-10
-1.13738e-10
-1.19967e-10
-9.21743e-12
-1.0452e-10
7.95054e-11
-8.87204e-11
1.52163e-10
-7.26555e-11
2.08597e-10
-5.64325e-11
2.48787e-10
-4.01884e-11
2.72886e-10
-2.40993e-11
2.81279e-10
-8.3935e-12
2.74653e-10
6.62618e-12
2.54099e-10
2.0553e-11
2.21267e-10
3.28311e-11
1.78583e-10
4.26833e-11
1.29561e-10
4.90224e-11
7.92081e-11
5.03549e-11
3.45848e-11
4.46246e-11
5.34117e-12
2.9243e-11
5.34026e-12
3.01258e-11
-3.62613e-11
1.01111e-10
-1.01076e-10
1.95078e-10
-1.38752e-10
2.9503e-10
-1.49436e-10
3.86613e-10
-1.38648e-10
4.58599e-10
-1.11666e-10
5.02554e-10
-7.28087e-11
5.12287e-10
-2.54749e-11
4.83436e-10
2.77654e-11
4.13001e-10
8.49553e-11
2.99071e-10
1.44616e-10
1.4057e-10
2.05613e-10
-6.29353e-11
2.67071e-10
-3.11355e-10
3.28314e-10
-6.04212e-10
3.88812e-10
-9.40707e-10
4.48143e-10
-1.31979e-09
5.05979e-10
-1.7402e-09
5.62061e-10
-2.20054e-09
6.1618e-10
-2.69926e-09
6.68176e-10
-3.23473e-09
7.17921e-10
-3.80524e-09
7.65314e-10
-4.409e-09
8.10284e-10
-5.04421e-09
8.52771e-10
-5.709e-09
8.92737e-10
-6.40151e-09
9.30153e-10
-7.11984e-09
9.65008e-10
-7.8621e-09
9.97289e-10
-8.6264e-09
1.02701e-09
-9.41085e-09
1.05416e-09
-1.02136e-08
1.07878e-09
-1.10327e-08
1.10087e-09
-1.18663e-08
1.12046e-09
-1.27127e-08
1.13758e-09
-1.35699e-08
1.15226e-09
-1.44363e-08
1.16453e-09
-1.53101e-08
1.17443e-09
-1.61894e-08
1.18201e-09
-1.70727e-08
1.18729e-09
-1.79583e-08
1.19032e-09
-1.88445e-08
1.19115e-09
-1.97297e-08
1.18982e-09
-2.06123e-08
1.18637e-09
-2.14909e-08
1.18085e-09
-2.23638e-08
1.17331e-09
-2.32297e-08
1.16379e-09
-2.40871e-08
1.15235e-09
-2.49345e-08
1.13903e-09
-2.57707e-08
1.12388e-09
-2.65943e-08
1.10695e-09
-2.74041e-08
1.08829e-09
-2.81987e-08
1.06796e-09
-2.8977e-08
1.046e-09
-2.97378e-08
1.02246e-09
-3.04799e-08
9.97395e-10
-3.12023e-08
9.70857e-10
-3.19039e-08
9.42896e-10
-3.25836e-08
9.13565e-10
-3.32406e-08
8.82914e-10
-3.38738e-08
8.50995e-10
-3.44823e-08
8.17861e-10
-3.50654e-08
7.83563e-10
-3.56221e-08
7.48155e-10
-3.61516e-08
7.11691e-10
-3.66533e-08
6.74223e-10
-3.71263e-08
6.35805e-10
-3.75701e-08
5.9649e-10
-3.79841e-08
5.56332e-10
-3.83675e-08
5.15385e-10
-3.87199e-08
4.73706e-10
-3.90408e-08
4.31348e-10
-3.93298e-08
3.88367e-10
-3.95863e-08
3.4482e-10
-3.981e-08
3.00762e-10
-4.00006e-08
2.56249e-10
-4.01577e-08
2.11339e-10
-4.02812e-08
1.66091e-10
-4.03708e-08
1.20564e-10
-4.04264e-08
7.48168e-11
-4.04478e-08
2.89077e-11
-4.04349e-08
-1.71036e-11
-4.03878e-08
-6.31568e-11
-4.03065e-08
-1.09191e-10
-4.01909e-08
-1.55143e-10
-4.00413e-08
-2.00952e-10
-3.98577e-08
-2.46556e-10
-3.96404e-08
-2.91892e-10
-3.93896e-08
-3.36896e-10
-3.91056e-08
-3.81504e-10
-3.87888e-08
-4.25651e-10
-3.84395e-08
-4.69274e-10
-3.80582e-08
-5.12307e-10
-3.76454e-08
-5.54684e-10
-3.72016e-08
-5.96337e-10
-3.67274e-08
-6.37203e-10
-3.62234e-08
-6.77216e-10
-3.56904e-08
-7.16309e-10
-3.5129e-08
-7.54415e-10
-3.45401e-08
-7.91467e-10
-3.39245e-08
-8.27399e-10
-3.3283e-08
-8.62146e-10
-3.26166e-08
-8.95641e-10
-3.19263e-08
-9.27816e-10
-3.12131e-08
-9.58605e-10
-3.04781e-08
-9.87945e-10
-2.97224e-08
-1.01577e-09
-2.89472e-08
-1.04202e-09
-2.81537e-08
-1.06663e-09
-2.73432e-08
-1.08954e-09
-2.6517e-08
-1.11068e-09
-2.56764e-08
-1.12999e-09
-2.48229e-08
-1.14742e-09
-2.39579e-08
-1.16291e-09
-2.30828e-08
-1.1764e-09
-2.21993e-08
-1.18783e-09
-2.13088e-08
-1.19716e-09
-2.04131e-08
-1.20433e-09
-1.95136e-08
-1.20928e-09
-1.86121e-08
-1.21199e-09
-1.77104e-08
-1.21239e-09
-1.681e-08
-1.21045e-09
-1.59129e-08
-1.20612e-09
-1.50208e-08
-1.19938e-09
-1.41356e-08
-1.19018e-09
-1.3259e-08
-1.17849e-09
-1.23929e-08
-1.16429e-09
-1.15393e-08
-1.14754e-09
-1.06999e-08
-1.12824e-09
-9.87685e-09
-1.10637e-09
-9.07189e-09
-1.08191e-09
-8.28697e-09
-1.05486e-09
-7.52402e-09
-1.02523e-09
-6.78494e-09
-9.9301e-10
-6.07163e-09
-9.58223e-10
-5.38596e-09
-9.20889e-10
-4.72978e-09
-8.81042e-10
-4.10491e-09
-8.38724e-10
-3.51314e-09
-7.93989e-10
-2.95616e-09
-7.46902e-10
-2.43566e-09
-6.97551e-10
-1.95319e-09
-6.46039e-10
-1.51024e-09
-5.92495e-10
-1.10815e-09
-5.37078e-10
-7.4814e-10
-4.79979e-10
-4.31227e-10
-4.21434e-10
-1.5822e-10
-3.6173e-10
7.03498e-11
-3.01226e-10
2.54283e-10
-2.40365e-10
3.93796e-10
-1.79701e-10
4.8963e-10
-1.19932e-10
5.43182e-10
-6.19449e-11
5.56687e-10
-6.87776e-12
5.33449e-10
4.37939e-11
4.7814e-10
8.81431e-11
3.97179e-10
1.23646e-10
2.99173e-10
1.47026e-10
1.95365e-10
1.54157e-10
9.98905e-11
1.40097e-10
2.92087e-11
9.99241e-11
3.45481e-11
4.47763e-11
-8.10403e-11
1.38832e-10
-1.95135e-10
2.55679e-10
-2.556e-10
3.73725e-10
-2.67484e-10
4.74712e-10
-2.39638e-10
5.43789e-10
-1.8074e-10
5.69266e-10
-9.82873e-11
5.42211e-10
1.58115e-12
4.56003e-10
1.13974e-10
3.05921e-10
2.35042e-10
8.87793e-11
3.61759e-10
-1.97362e-10
4.91751e-10
-5.5344e-10
6.23146e-10
-9.79589e-10
7.54464e-10
-1.4753e-09
8.84519e-10
-2.03953e-09
1.01237e-09
-2.67082e-09
1.13727e-09
-3.36738e-09
1.25861e-09
-4.1271e-09
1.37591e-09
-4.94769e-09
1.48877e-09
-5.82667e-09
1.5969e-09
-6.76142e-09
1.70006e-09
-7.74918e-09
1.79805e-09
-8.78714e-09
1.89073e-09
-9.87239e-09
1.97799e-09
-1.1002e-08
2.05976e-09
-1.2173e-08
2.13599e-09
-1.33824e-08
2.20666e-09
-1.46271e-08
2.27175e-09
-1.59042e-08
2.33128e-09
-1.72107e-08
2.38526e-09
-1.85436e-08
2.43374e-09
-1.98999e-08
2.47675e-09
-2.12767e-08
2.51436e-09
-2.2671e-08
2.54662e-09
-2.40801e-08
2.5736e-09
-2.5501e-08
2.59538e-09
-2.69311e-08
2.61204e-09
-2.83674e-08
2.62366e-09
-2.98074e-08
2.63033e-09
-3.12484e-08
2.63215e-09
-3.26878e-08
2.6292e-09
-3.4123e-08
2.62159e-09
-3.55516e-08
2.60941e-09
-3.69711e-08
2.59277e-09
-3.83791e-08
2.57177e-09
-3.97732e-08
2.54652e-09
-4.11513e-08
2.51712e-09
-4.25111e-08
2.48368e-09
-4.38505e-08
2.4463e-09
-4.51673e-08
2.40511e-09
-4.64596e-08
2.3602e-09
-4.77252e-08
2.31169e-09
-4.89625e-08
2.25969e-09
-5.01694e-08
2.20432e-09
-5.13442e-08
2.14568e-09
-5.24852e-08
2.08389e-09
-5.35907e-08
2.01907e-09
-5.46591e-08
1.95132e-09
-5.56889e-08
1.88077e-09
-5.66786e-08
1.80753e-09
-5.76267e-08
1.73171e-09
-5.8532e-08
1.65343e-09
-5.93931e-08
1.57282e-09
-6.02089e-08
1.48998e-09
-6.09781e-08
1.40503e-09
-6.16997e-08
1.31811e-09
-6.23727e-08
1.22931e-09
-6.29961e-08
1.13878e-09
-6.3569e-08
1.04662e-09
-6.40906e-08
9.52955e-10
-6.45602e-08
8.57917e-10
-6.4977e-08
7.61628e-10
-6.53404e-08
6.64211e-10
-6.565e-08
5.65792e-10
-6.59051e-08
4.66499e-10
-6.61055e-08
3.66461e-10
-6.62507e-08
2.65808e-10
-6.63406e-08
1.6467e-10
-6.63749e-08
6.31779e-11
-6.63534e-08
-3.8534e-11
-6.62762e-08
-1.40333e-10
-6.61433e-08
-2.42084e-10
-6.59548e-08
-3.4365e-10
-6.57109e-08
-4.44894e-10
-6.54118e-08
-5.45677e-10
-6.50578e-08
-6.45859e-10
-6.46494e-08
-7.45302e-10
-6.4187e-08
-8.43863e-10
-6.36713e-08
-9.41399e-10
-6.31028e-08
-1.03777e-09
-6.24823e-08
-1.13282e-09
-6.18106e-08
-1.22642e-09
-6.10885e-08
-1.31841e-09
-6.0317e-08
-1.40866e-09
-5.94972e-08
-1.49701e-09
-5.86302e-08
-1.58332e-09
-5.77172e-08
-1.66745e-09
-5.67594e-08
-1.74924e-09
-5.57583e-08
-1.82855e-09
-5.47152e-08
-1.90523e-09
-5.36317e-08
-1.97914e-09
-5.25093e-08
-2.05014e-09
-5.13499e-08
-2.11807e-09
-5.0155e-08
-2.1828e-09
-4.89266e-08
-2.24418e-09
-4.76666e-08
-2.30207e-09
-4.63769e-08
-2.35633e-09
-4.50596e-08
-2.40684e-09
-4.37168e-08
-2.45345e-09
-4.23508e-08
-2.49602e-09
-4.09637e-08
-2.53444e-09
-3.95581e-08
-2.56858e-09
-3.81362e-08
-2.59831e-09
-3.67005e-08
-2.62351e-09
-3.52536e-08
-2.64406e-09
-3.3798e-08
-2.65987e-09
-3.23365e-08
-2.6708e-09
-3.08717e-08
-2.67678e-09
-2.94064e-08
-2.67769e-09
-2.79434e-08
-2.67345e-09
-2.64856e-08
-2.66398e-09
-2.50358e-08
-2.64919e-09
-2.35969e-08
-2.629e-09
-2.2172e-08
-2.60337e-09
-2.07641e-08
-2.57223e-09
-1.93761e-08
-2.53552e-09
-1.80111e-08
-2.49322e-09
-1.66722e-08
-2.4453e-09
-1.53624e-08
-2.39173e-09
-1.40847e-08
-2.33252e-09
-1.28423e-08
-2.26768e-09
-1.16381e-08
-2.19722e-09
-1.04751e-08
-2.12119e-09
-9.35634e-09
-2.03965e-09
-8.2847e-09
-1.95268e-09
-7.26304e-09
-1.86039e-09
-6.29412e-09
-1.7629e-09
-5.38062e-09
-1.6604e-09
-4.5251e-09
-1.55308e-09
-3.72996e-09
-1.44118e-09
-2.99742e-09
-1.32503e-09
-2.32952e-09
-1.20498e-09
-1.72801e-09
-1.08149e-09
-1.19435e-09
-9.55092e-10
-7.29624e-10
-8.26457e-10
-3.34462e-10
-6.96388e-10
-8.95102e-12
-5.65878e-10
2.47496e-10
-4.36149e-10
4.36282e-10
-3.08718e-10
5.59813e-10
-1.85479e-10
6.21739e-10
-6.88065e-11
6.27227e-10
3.83039e-11
5.83299e-10
1.3207e-10
4.99219e-10
2.07728e-10
3.86877e-10
2.59369e-10
2.61148e-10
2.79883e-10
1.40047e-10
2.61196e-10
4.45668e-11
1.95406e-10
7.91127e-11
4.95638e-11
-1.3061e-10
1.49804e-10
-2.95373e-10
2.68139e-10
-3.73938e-10
3.79413e-10
-3.78761e-10
4.62847e-10
-3.23071e-10
5.01393e-10
-2.1929e-10
4.81359e-10
-7.82572e-11
3.91996e-10
9.09463e-11
2.25086e-10
2.80881e-10
-2.54039e-11
4.85529e-10
-3.63691e-10
7.00042e-10
-7.92468e-10
9.20529e-10
-1.31318e-09
1.14386e-09
-1.92622e-09
1.36751e-09
-2.63114e-09
1.58944e-09
-3.42679e-09
1.80802e-09
-4.31142e-09
2.0219e-09
-5.28282e-09
2.23001e-09
-6.33838e-09
2.43147e-09
-7.47518e-09
2.62558e-09
-8.69004e-09
2.81175e-09
-9.97953e-09
2.98956e-09
-1.13401e-08
3.15863e-09
-1.27681e-08
3.31868e-09
-1.42596e-08
3.46951e-09
-1.58108e-08
3.61095e-09
-1.74177e-08
3.7429e-09
-1.90763e-08
3.8653e-09
-2.07827e-08
3.97811e-09
-2.25327e-08
4.08132e-09
-2.43224e-08
4.17497e-09
-2.61478e-08
4.2591e-09
-2.80048e-08
4.33378e-09
-2.98895e-08
4.39909e-09
-3.17981e-08
4.45513e-09
-3.37265e-08
4.50201e-09
-3.56709e-08
4.53984e-09
-3.76277e-08
4.56878e-09
-3.9593e-08
4.58895e-09
-4.15631e-08
4.6005e-09
-4.35346e-08
4.60359e-09
-4.55037e-08
4.59837e-09
-4.74672e-08
4.58503e-09
-4.94215e-08
4.56371e-09
-5.13633e-08
4.5346e-09
-5.32894e-08
4.49788e-09
-5.51966e-08
4.45373e-09
-5.70818e-08
4.40233e-09
-5.8942e-08
4.34386e-09
-6.07742e-08
4.27852e-09
-6.25756e-08
4.20649e-09
-6.43434e-08
4.12797e-09
-6.60749e-08
4.04315e-09
-6.77674e-08
3.95222e-09
-6.94184e-08
3.85538e-09
-7.10256e-08
3.75282e-09
-7.25864e-08
3.64475e-09
-7.40987e-08
3.53136e-09
-7.55603e-08
3.41286e-09
-7.69689e-08
3.28944e-09
-7.83227e-08
3.16131e-09
-7.96197e-08
3.02867e-09
-8.0858e-08
2.89173e-09
-8.20359e-08
2.75068e-09
-8.31516e-08
2.60575e-09
-8.42037e-08
2.45712e-09
-8.51906e-08
2.30503e-09
-8.6111e-08
2.14967e-09
-8.69635e-08
1.99125e-09
-8.77468e-08
1.83e-09
-8.846e-08
1.66612e-09
-8.91019e-08
1.49983e-09
-8.96716e-08
1.33135e-09
-9.01683e-08
1.16091e-09
-9.05913e-08
9.88712e-10
-9.09398e-08
8.14992e-10
-9.12133e-08
6.39973e-10
-9.14113e-08
4.63882e-10
-9.15336e-08
2.86948e-10
-9.15798e-08
1.09402e-10
-9.15499e-08
-6.85219e-11
-9.14436e-08
-2.46589e-10
-9.12611e-08
-4.24563e-10
-9.10026e-08
-6.02206e-10
-9.06682e-08
-7.79277e-10
-9.02583e-08
-9.55532e-10
-8.97735e-08
-1.13073e-09
-8.92141e-08
-1.30462e-09
-8.8581e-08
-1.47695e-09
-8.7875e-08
-1.64749e-09
-8.70968e-08
-1.81596e-09
-8.62474e-08
-1.98213e-09
-8.53281e-08
-2.14575e-09
-8.434e-08
-2.30655e-09
-8.32844e-08
-2.46428e-09
-8.21627e-08
-2.61869e-09
-8.09765e-08
-2.76952e-09
-7.97274e-08
-2.91652e-09
-7.84172e-08
-3.05943e-09
-7.70478e-08
-3.19799e-09
-7.56211e-08
-3.33195e-09
-7.41392e-08
-3.46106e-09
-7.26042e-08
-3.58506e-09
-7.10186e-08
-3.7037e-09
-6.93846e-08
-3.81674e-09
-6.77049e-08
-3.92393e-09
-6.59819e-08
-4.02501e-09
-6.42185e-08
-4.11976e-09
-6.24174e-08
-4.20794e-09
-6.05816e-08
-4.28931e-09
-5.87139e-08
-4.36364e-09
-5.68177e-08
-4.43072e-09
-5.48959e-08
-4.49031e-09
-5.2952e-08
-4.54222e-09
-5.09893e-08
-4.58623e-09
-4.90112e-08
-4.62214e-09
-4.70213e-08
-4.64977e-09
-4.50232e-08
-4.66893e-09
-4.30205e-08
-4.67944e-09
-4.10171e-08
-4.68114e-09
-3.90167e-08
-4.67387e-09
-3.70231e-08
-4.6575e-09
-3.50404e-08
-4.63188e-09
-3.30725e-08
-4.59691e-09
-3.11235e-08
-4.55247e-09
-2.91972e-08
-4.49846e-09
-2.72979e-08
-4.43483e-09
-2.54296e-08
-4.3615e-09
-2.35965e-08
-4.27844e-09
-2.18026e-08
-4.18563e-09
-2.00521e-08
-4.08307e-09
-1.83489e-08
-3.97079e-09
-1.66973e-08
-3.84884e-09
-1.51012e-08
-3.71732e-09
-1.35645e-08
-3.57634e-09
-1.20911e-08
-3.42606e-09
-1.06848e-08
-3.26669e-09
-9.34924e-09
-3.09849e-09
-8.08788e-09
-2.92176e-09
-6.90407e-09
-2.73688e-09
-5.80092e-09
-2.54433e-09
-4.78129e-09
-2.34466e-09
-3.84772e-09
-2.13855e-09
-3.00242e-09
-1.92679e-09
-2.24714e-09
-1.71037e-09
-1.58314e-09
-1.49046e-09
-1.01105e-09
-1.26848e-09
-5.30778e-10
-1.04615e-09
-1.41354e-10
-8.25574e-10
1.59247e-10
-6.09318e-10
3.74305e-10
-4.00537e-10
5.08609e-10
-2.03112e-10
5.6874e-10
-2.18296e-11
5.63391e-10
1.37415e-10
5.03711e-10
2.67406e-10
4.03654e-10
3.59424e-10
2.80331e-10
4.03205e-10
1.54341e-10
3.87186e-10
5.03473e-11
2.994e-10
1.29459e-10
4.73046e-11
-1.77911e-10
1.39578e-10
-3.87645e-10
2.41411e-10
-4.75773e-10
3.25462e-10
-4.62807e-10
3.69391e-10
-3.66997e-10
3.54867e-10
-2.04768e-10
2.67007e-10
9.60489e-12
9.3931e-11
2.64027e-10
-1.73608e-10
5.48422e-10
-5.42562e-10
8.54481e-10
-1.0179e-09
1.17538e-09
-1.60292e-09
1.50554e-09
-2.29946e-09
1.8404e-09
-3.10818e-09
2.17623e-09
-4.02871e-09
2.50997e-09
-5.05983e-09
2.83913e-09
-6.1996e-09
3.16167e-09
-7.44549e-09
3.47591e-09
-8.79449e-09
3.78047e-09
-1.02431e-08
4.07423e-09
-1.17877e-08
4.3563e-09
-1.34241e-08
4.62593e-09
-1.5148e-08
4.88254e-09
-1.69549e-08
5.12566e-09
-1.88404e-08
5.35493e-09
-2.07995e-08
5.57009e-09
-2.28275e-08
5.77093e-09
-2.49196e-08
5.95733e-09
-2.70707e-08
6.12921e-09
-2.92759e-08
6.28655e-09
-3.15303e-08
6.42936e-09
-3.38289e-08
6.5577e-09
-3.61667e-08
6.67165e-09
-3.8539e-08
6.77132e-09
-4.09407e-08
6.85684e-09
-4.33671e-08
6.92838e-09
-4.58133e-08
6.98611e-09
-4.82748e-08
7.03022e-09
-5.07467e-08
7.06092e-09
-5.32247e-08
7.07842e-09
-5.5704e-08
7.08296e-09
-5.81804e-08
7.07477e-09
-6.06495e-08
7.0541e-09
-6.3107e-08
7.02121e-09
-6.55487e-08
6.97635e-09
-6.79707e-08
6.91981e-09
-7.03688e-08
6.85185e-09
-7.27392e-08
6.77274e-09
-7.50781e-08
6.68278e-09
-7.73818e-08
6.58225e-09
-7.96468e-08
6.47143e-09
-8.18694e-08
6.35062e-09
-8.40464e-08
6.22012e-09
-8.61744e-08
6.08023e-09
-8.82503e-08
5.93123e-09
-9.02709e-08
5.77344e-09
-9.22333e-08
5.60716e-09
-9.41346e-08
5.43269e-09
-9.59721e-08
5.25035e-09
-9.77431e-08
5.06043e-09
-9.94451e-08
4.86326e-09
-1.01076e-07
4.65915e-09
-1.02632e-07
4.44841e-09
-1.04113e-07
4.23135e-09
-1.05515e-07
4.0083e-09
-1.06838e-07
3.77958e-09
-1.08078e-07
3.54551e-09
-1.09235e-07
3.30641e-09
-1.10307e-07
3.06262e-09
-1.11291e-07
2.81445e-09
-1.12187e-07
2.56225e-09
-1.12994e-07
2.30634e-09
-1.13709e-07
2.04707e-09
-1.14333e-07
1.78477e-09
-1.14864e-07
1.51979e-09
-1.15302e-07
1.25246e-09
-1.15645e-07
9.83145e-10
-1.15893e-07
7.12185e-10
-1.16046e-07
4.39938e-10
-1.16104e-07
1.66758e-10
-1.16065e-07
-1.06993e-10
-1.15931e-07
-3.80954e-10
-1.15701e-07
-6.54759e-10
-1.15375e-07
-9.28043e-10
-1.14954e-07
-1.20043e-09
-1.14438e-07
-1.47156e-09
-1.13827e-07
-1.74103e-09
-1.13123e-07
-2.00849e-09
-1.12327e-07
-2.27354e-09
-1.11438e-07
-2.5358e-09
-1.10459e-07
-2.79489e-09
-1.09391e-07
-3.05042e-09
-1.08235e-07
-3.30199e-09
-1.06992e-07
-3.54923e-09
-1.05665e-07
-3.79173e-09
-1.04254e-07
-4.02911e-09
-1.02763e-07
-4.26098e-09
-1.01193e-07
-4.48693e-09
-9.95454e-08
-4.70659e-09
-9.78238e-08
-4.91955e-09
-9.60303e-08
-5.12543e-09
-9.41675e-08
-5.32384e-09
-9.22382e-08
-5.51438e-09
-9.02452e-08
-5.69669e-09
-8.81916e-08
-5.87037e-09
-8.60805e-08
-6.03505e-09
-8.39151e-08
-6.19036e-09
-8.1699e-08
-6.33593e-09
-7.94355e-08
-6.4714e-09
-7.71284e-08
-6.59641e-09
-7.47814e-08
-6.71062e-09
-7.23985e-08
-6.81368e-09
-6.99835e-08
-6.90527e-09
-6.75407e-08
-6.98506e-09
-6.50742e-08
-7.05274e-09
-6.25883e-08
-7.108e-09
-6.00875e-08
-7.15056e-09
-5.75763e-08
-7.18014e-09
-5.50593e-08
-7.19647e-09
-5.25411e-08
-7.19932e-09
-5.00265e-08
-7.18846e-09
-4.75203e-08
-7.16365e-09
-4.50275e-08
-7.12472e-09
-4.25529e-08
-7.07149e-09
-4.01016e-08
-7.0038e-09
-3.76785e-08
-6.92152e-09
-3.52888e-08
-6.82455e-09
-3.29375e-08
-6.71281e-09
-3.06297e-08
-6.58626e-09
-2.83704e-08
-6.44487e-09
-2.61648e-08
-6.28867e-09
-2.40179e-08
-6.11773e-09
-2.19346e-08
-5.93213e-09
-1.99199e-08
-5.73204e-09
-1.79785e-08
-5.51766e-09
-1.61153e-08
-5.28927e-09
-1.43348e-08
-5.0472e-09
-1.26415e-08
-4.79187e-09
-1.10394e-08
-4.52379e-09
-9.53273e-09
-4.24358e-09
-8.12508e-09
-3.95199e-09
-6.81985e-09
-3.64989e-09
-5.62004e-09
-3.33836e-09
-4.52817e-09
-3.01866e-09
-3.54623e-09
-2.6923e-09
-2.67559e-09
-2.3611e-09
-1.91685e-09
-2.02722e-09
-1.26973e-09
-1.69327e-09
-7.3291e-10
-1.36239e-09
-3.03867e-10
-1.03836e-09
2.13669e-11
-7.25771e-10
2.48428e-10
-4.30173e-10
3.84892e-10
-1.58291e-10
4.40561e-10
8.1748e-11
4.27777e-10
2.80189e-10
3.61761e-10
4.2544e-10
2.61003e-10
5.03962e-10
1.47787e-10
5.004e-10
4.91704e-11
3.98017e-10
1.7863e-10
4.01624e-11
-2.18078e-10
1.13443e-10
-4.60923e-10
1.8418e-10
-5.46508e-10
2.24258e-10
-5.02893e-10
2.10685e-10
-3.53426e-10
1.24532e-10
-1.18611e-10
-4.96821e-11
1.83818e-10
-3.24432e-10
5.38778e-10
-7.09559e-10
9.33549e-10
-1.21257e-09
1.35749e-09
-1.83893e-09
1.80174e-09
-2.59233e-09
2.25895e-09
-3.47492e-09
2.72299e-09
-4.48753e-09
3.18884e-09
-5.62986e-09
3.6523e-09
-6.90064e-09
4.10991e-09
-8.29776e-09
4.5588e-09
-9.81846e-09
4.9966e-09
-1.14593e-08
5.42136e-09
-1.32166e-08
5.83146e-09
-1.50858e-08
6.22557e-09
-1.70625e-08
6.60262e-09
-1.91417e-08
6.96174e-09
-2.13183e-08
7.30223e-09
-2.35869e-08
7.62353e-09
-2.59421e-08
7.92523e-09
-2.83781e-08
8.20701e-09
-3.08895e-08
8.46865e-09
-3.34703e-08
8.71002e-09
-3.61148e-08
8.93106e-09
-3.88172e-08
9.13174e-09
-4.15716e-08
9.31213e-09
-4.43723e-08
9.47232e-09
-4.72134e-08
9.61244e-09
-5.00892e-08
9.73267e-09
-5.29941e-08
9.83321e-09
-5.59223e-08
9.9143e-09
-5.88682e-08
9.97618e-09
-6.18264e-08
1.00191e-08
-6.47915e-08
1.00435e-08
-6.7758e-08
1.00495e-08
-7.07208e-08
1.00375e-08
-7.36746e-08
1.00079e-08
-7.66145e-08
9.96103e-09
-7.95353e-08
9.89721e-09
-8.24323e-08
9.81684e-09
-8.53008e-08
9.7203e-09
-8.8136e-08
9.60798e-09
-9.09335e-08
9.48028e-09
-9.36889e-08
9.33759e-09
-9.63978e-08
9.18033e-09
-9.90561e-08
9.0089e-09
-1.0166e-07
8.82373e-09
-1.04205e-07
8.62522e-09
-1.06687e-07
8.41381e-09
-1.09104e-07
8.18992e-09
-1.11451e-07
7.95398e-09
-1.13724e-07
7.70643e-09
-1.15922e-07
7.44769e-09
-1.18039e-07
7.17822e-09
-1.20075e-07
6.89844e-09
-1.22024e-07
6.60881e-09
-1.23886e-07
6.30977e-09
-1.25656e-07
6.00176e-09
-1.27333e-07
5.68526e-09
-1.28914e-07
5.3607e-09
-1.30397e-07
5.02855e-09
-1.3178e-07
4.68927e-09
-1.33061e-07
4.34332e-09
-1.34237e-07
3.99118e-09
-1.35308e-07
3.63331e-09
-1.36272e-07
3.27019e-09
-1.37128e-07
2.9023e-09
-1.37873e-07
2.53012e-09
-1.38507e-07
2.15414e-09
-1.3903e-07
1.77485e-09
-1.39439e-07
1.39274e-09
-1.39735e-07
1.00831e-09
-1.39917e-07
6.22065e-10
-1.39985e-07
2.34512e-10
-1.39938e-07
-1.53839e-10
-1.39777e-07
-5.42474e-10
-1.39501e-07
-9.30874e-10
-1.3911e-07
-1.31852e-09
-1.38606e-07
-1.70487e-09
-1.37988e-07
-2.08942e-09
-1.37257e-07
-2.47161e-09
-1.36415e-07
-2.85092e-09
-1.35462e-07
-3.2268e-09
-1.34399e-07
-3.5987e-09
-1.33228e-07
-3.96609e-09
-1.3195e-07
-4.3284e-09
-1.30567e-07
-4.6851e-09
-1.2908e-07
-5.03562e-09
-1.27492e-07
-5.37942e-09
-1.25806e-07
-5.71594e-09
-1.24022e-07
-6.04461e-09
-1.22144e-07
-6.3649e-09
-1.20174e-07
-6.67624e-09
-1.18116e-07
-6.97808e-09
-1.15971e-07
-7.26986e-09
-1.13744e-07
-7.55105e-09
-1.11437e-07
-7.82108e-09
-1.09055e-07
-8.07943e-09
-1.066e-07
-8.32555e-09
-1.04076e-07
-8.55891e-09
-1.01487e-07
-8.779e-09
-9.88377e-08
-8.98528e-09
-9.61319e-08
-9.17726e-09
-9.33739e-08
-9.35443e-09
-9.05682e-08
-9.5163e-09
-8.77195e-08
-9.6624e-09
-8.48325e-08
-9.79227e-09
-8.19121e-08
-9.90544e-09
-7.89633e-08
-1.00015e-08
-7.59913e-08
-1.008e-08
-7.30013e-08
-1.01405e-08
-6.99987e-08
-1.01828e-08
-6.69889e-08
-1.02063e-08
-6.39775e-08
-1.02108e-08
-6.09701e-08
-1.01959e-08
-5.79724e-08
-1.01613e-08
-5.49902e-08
-1.01069e-08
-5.20294e-08
-1.00323e-08
-4.90958e-08
-9.93735e-09
-4.61955e-08
-9.82188e-09
-4.33343e-08
-9.68574e-09
-4.05182e-08
-9.52885e-09
-3.77533e-08
-9.35116e-09
-3.50455e-08
-9.15266e-09
-3.24008e-08
-8.93341e-09
-2.9825e-08
-8.6935e-09
-2.7324e-08
-8.43312e-09
-2.49036e-08
-8.15251e-09
-2.25692e-08
-7.85198e-09
-2.03266e-08
-7.53196e-09
-1.81808e-08
-7.19294e-09
-1.61371e-08
-6.83555e-09
-1.42003e-08
-6.46056e-09
-1.23751e-08
-6.06887e-09
-1.06655e-08
-5.66157e-09
-9.07543e-09
-5.23994e-09
-7.60827e-09
-4.80552e-09
-6.26681e-09
-4.36011e-09
-5.05324e-09
-3.90588e-09
-3.96898e-09
-3.44536e-09
-3.01461e-09
-2.98159e-09
-2.18971e-09
-2.51817e-09
-1.49271e-09
-2.05939e-09
-9.207e-10
-1.61037e-09
-4.69231e-10
-1.17724e-09
-1.32103e-10
-7.67302e-10
9.88929e-11
-3.89286e-10
2.34226e-10
-5.35846e-11
2.86921e-10
2.27495e-10
2.72884e-10
4.3948e-10
2.11328e-10
5.65521e-10
1.25377e-10
5.8635e-10
4.3105e-11
4.80288e-10
2.21738e-10
2.96823e-11
-2.47762e-10
7.5692e-11
-5.0693e-10
1.03853e-10
-5.74668e-10
8.64992e-11
-4.85537e-10
7.67035e-13
-2.67695e-10
-1.72269e-10
5.44272e-11
-4.4819e-10
4.59742e-10
-8.39656e-10
9.30241e-10
-1.35673e-09
1.45062e-09
-2.00717e-09
2.00794e-09
-2.79669e-09
2.59127e-09
-3.72921e-09
3.19146e-09
-4.80702e-09
3.80081e-09
-6.03105e-09
4.41287e-09
-7.40101e-09
5.02226e-09
-8.91556e-09
5.62446e-09
-1.05725e-08
6.2157e-09
-1.23687e-08
6.79284e-09
-1.43006e-08
7.35326e-09
-1.63639e-08
7.89478e-09
-1.85539e-08
8.41559e-09
-2.08655e-08
8.91422e-09
-2.32932e-08
9.38945e-09
-2.58313e-08
9.84031e-09
-2.84738e-08
1.0266e-08
-3.12145e-08
1.06659e-08
-3.40471e-08
1.10396e-08
-3.69653e-08
1.13868e-08
-3.99624e-08
1.17072e-08
-4.3032e-08
1.20006e-08
-4.61674e-08
1.22671e-08
-4.93619e-08
1.25067e-08
-5.26091e-08
1.27195e-08
-5.59023e-08
1.29056e-08
-5.92348e-08
1.30653e-08
-6.26003e-08
1.31987e-08
-6.59923e-08
1.33062e-08
-6.94043e-08
1.33882e-08
-7.283e-08
1.34449e-08
-7.62632e-08
1.34767e-08
-7.96978e-08
1.34841e-08
-8.31277e-08
1.34675e-08
-8.6547e-08
1.34272e-08
-8.99499e-08
1.33639e-08
-9.33306e-08
1.32779e-08
-9.66836e-08
1.31698e-08
-1.00003e-07
1.304e-08
-1.03284e-07
1.28891e-08
-1.06522e-07
1.27176e-08
-1.0971e-07
1.25261e-08
-1.12845e-07
1.2315e-08
-1.15921e-07
1.20849e-08
-1.18933e-07
1.18363e-08
-1.21878e-07
1.15699e-08
-1.24751e-07
1.12862e-08
-1.27547e-07
1.09858e-08
-1.30262e-07
1.06692e-08
-1.32892e-07
1.0337e-08
-1.35435e-07
9.98985e-09
-1.37885e-07
9.62827e-09
-1.40239e-07
9.25286e-09
-1.42494e-07
8.86423e-09
-1.44648e-07
8.46297e-09
-1.46696e-07
8.04969e-09
-1.48635e-07
7.62501e-09
-1.50464e-07
7.18952e-09
-1.52179e-07
6.74384e-09
-1.53779e-07
6.28861e-09
-1.5526e-07
5.82443e-09
-1.56621e-07
5.35194e-09
-1.57859e-07
4.87178e-09
-1.58973e-07
4.38458e-09
-1.59962e-07
3.89099e-09
-1.60824e-07
3.39166e-09
-1.61557e-07
2.88723e-09
-1.6216e-07
2.37838e-09
-1.62633e-07
1.86575e-09
-1.62975e-07
1.35003e-09
-1.63185e-07
8.31894e-10
-1.63262e-07
3.12015e-10
-1.63207e-07
-2.08917e-10
-1.6302e-07
-7.30213e-10
-1.62699e-07
-1.25117e-09
-1.62247e-07
-1.7711e-09
-1.61662e-07
-2.28928e-09
-1.60947e-07
-2.80501e-09
-1.60101e-07
-3.31757e-09
-1.59125e-07
-3.82623e-09
-1.58022e-07
-4.33027e-09
-1.56792e-07
-4.82896e-09
-1.55436e-07
-5.32157e-09
-1.53957e-07
-5.80736e-09
-1.52357e-07
-6.2856e-09
-1.50637e-07
-6.75554e-09
-1.488e-07
-7.21644e-09
-1.46848e-07
-7.66756e-09
-1.44785e-07
-8.10816e-09
-1.42612e-07
-8.53749e-09
-1.40333e-07
-8.95481e-09
-1.37952e-07
-9.35939e-09
-1.35472e-07
-9.75047e-09
-1.32895e-07
-1.01273e-08
-1.30227e-07
-1.04893e-08
-1.27471e-07
-1.08355e-08
-1.24631e-07
-1.11654e-08
-1.21712e-07
-1.14781e-08
-1.18718e-07
-1.17731e-08
-1.15654e-07
-1.20496e-08
-1.12524e-07
-1.2307e-08
-1.09334e-07
-1.25445e-08
-1.06089e-07
-1.27615e-08
-1.02793e-07
-1.29575e-08
-9.94541e-08
-1.31317e-08
-9.60759e-08
-1.32836e-08
-9.26648e-08
-1.34126e-08
-8.92266e-08
-1.35182e-08
-8.57674e-08
-1.35997e-08
-8.22933e-08
-1.36568e-08
-7.88106e-08
-1.3689e-08
-7.53257e-08
-1.36957e-08
-7.1845e-08
-1.36766e-08
-6.83751e-08
-1.36313e-08
-6.49225e-08
-1.35594e-08
-6.14941e-08
-1.34607e-08
-5.80965e-08
-1.33349e-08
-5.47366e-08
-1.31818e-08
-5.14211e-08
-1.30012e-08
-4.81568e-08
-1.27931e-08
-4.49507e-08
-1.25573e-08
-4.18094e-08
-1.22939e-08
-3.87398e-08
-1.2003e-08
-3.57485e-08
-1.16848e-08
-3.28421e-08
-1.13395e-08
-3.00272e-08
-1.09675e-08
-2.731e-08
-1.05692e-08
-2.46968e-08
-1.01452e-08
-2.21935e-08
-9.69625e-09
-1.98058e-08
-9.22323e-09
-1.75392e-08
-8.72718e-09
-1.53987e-08
-8.20935e-09
-1.3389e-08
-7.67123e-09
-1.15144e-08
-7.11456e-09
-9.7785e-09
-6.54142e-09
-8.18438e-09
-5.95424e-09
-6.73437e-09
-5.35588e-09
-5.43001e-09
-4.74972e-09
-4.27188e-09
-4.13973e-09
-3.25947e-09
-3.53058e-09
-2.39104e-09
-2.92782e-09
-1.66346e-09
-2.33795e-09
-1.072e-09
-1.7687e-09
-6.10151e-10
-1.22916e-09
-2.69365e-10
-7.30073e-10
-3.88649e-11
-2.84086e-10
9.4644e-11
9.39867e-11
1.47284e-10
3.86841e-10
1.38422e-10
5.74386e-10
9.12447e-11
6.33529e-10
3.36477e-11
5.37886e-10
2.55387e-10
1.69593e-11
-2.64719e-10
2.96502e-11
-5.1962e-10
6.44028e-12
-5.51458e-10
-7.89795e-11
-4.00115e-10
-2.48655e-10
-9.80179e-11
-5.21004e-10
3.26777e-10
-9.11289e-10
8.50026e-10
-1.43199e-09
1.45094e-09
-2.09309e-09
2.11172e-09
-2.90234e-09
2.81719e-09
-3.86549e-09
3.55442e-09
-4.98647e-09
4.31244e-09
-6.26762e-09
5.08195e-09
-7.70984e-09
5.85509e-09
-9.31281e-09
6.62522e-09
-1.10751e-08
7.38671e-09
-1.29942e-08
8.13484e-09
-1.5067e-08
8.86563e-09
-1.72895e-08
9.57574e-09
-1.9657e-08
1.02624e-08
-2.21646e-08
1.09232e-08
-2.48066e-08
1.15562e-08
-2.75771e-08
1.21599e-08
-3.04697e-08
1.27329e-08
-3.3478e-08
1.32743e-08
-3.65951e-08
1.37831e-08
-3.98142e-08
1.42587e-08
-4.31281e-08
1.47007e-08
-4.65296e-08
1.51087e-08
-5.00115e-08
1.54825e-08
-5.35664e-08
1.5822e-08
-5.7187e-08
1.61273e-08
-6.08659e-08
1.63984e-08
-6.45958e-08
1.66355e-08
-6.83694e-08
1.68388e-08
-7.21793e-08
1.70086e-08
-7.60184e-08
1.71453e-08
-7.98795e-08
1.72493e-08
-8.37556e-08
1.73209e-08
-8.76396e-08
1.73607e-08
-9.15247e-08
1.73692e-08
-9.54041e-08
1.73468e-08
-9.92711e-08
1.72943e-08
-1.03119e-07
1.7212e-08
-1.06942e-07
1.71007e-08
-1.10733e-07
1.69609e-08
-1.14486e-07
1.67934e-08
-1.18196e-07
1.65987e-08