/*--------------------------------*- C++ -*----------------------------------*\
  =========                 |
  \\      /  F ield         | OpenFOAM: The Open Source CFD Toolbox
   \\    /   O peration     | Website:  https://openfoam.org
    \\  /    A nd           | Version:  7
     \\/     M anipulation  |
\*---------------------------------------------------------------------------*/
FoamFile
{
    version     2.0;
    format      ascii;
    class       volVectorField;
    location    "0.2";
    object      U;
}
// * * * * * * * * * * * * * * * * * * * * * * * * * * * * * * * * * * * * * //

dimensions      [0 1 -1 0 0 0 0];

internalField   nonuniform List<vector> 
25600
(
(1.98697e-07 -1.89536e-07 0)
(2.85782e-06 -1.77891e-06 0)
(9.07456e-06 -2.82251e-06 0)
(1.68988e-05 -3.19642e-06 0)
(2.48314e-05 -3.11274e-06 0)
(3.19165e-05 -2.73422e-06 0)
(3.75049e-05 -2.16903e-06 0)
(4.11456e-05 -1.48827e-06 0)
(4.25407e-05 -7.38319e-07 0)
(4.14974e-05 5.07156e-08 0)
(3.78989e-05 8.58033e-07 0)
(3.16832e-05 1.66949e-06 0)
(2.28292e-05 2.47528e-06 0)
(1.13461e-05 3.26825e-06 0)
(-2.73181e-06 4.04318e-06 0)
(-1.93536e-05 4.79543e-06 0)
(-3.84542e-05 5.52276e-06 0)
(-5.9957e-05 6.22277e-06 0)
(-8.37773e-05 6.89348e-06 0)
(-0.000109824 7.53425e-06 0)
(-0.000137999 8.14389e-06 0)
(-0.000168205 8.72197e-06 0)
(-0.000200336 9.26761e-06 0)
(-0.000234288 9.78127e-06 0)
(-0.000269954 1.02624e-05 0)
(-0.000307227 1.07116e-05 0)
(-0.000345998 1.11286e-05 0)
(-0.00038616 1.15138e-05 0)
(-0.000427604 1.18677e-05 0)
(-0.000470225 1.21898e-05 0)
(-0.000513913 1.24815e-05 0)
(-0.000558566 1.27424e-05 0)
(-0.000604077 1.29733e-05 0)
(-0.000650345 1.31744e-05 0)
(-0.000697266 1.33463e-05 0)
(-0.000744742 1.34895e-05 0)
(-0.000792673 1.36048e-05 0)
(-0.000840961 1.36927e-05 0)
(-0.000889513 1.37539e-05 0)
(-0.000938235 1.37888e-05 0)
(-0.000987035 1.37978e-05 0)
(-0.00103582 1.37815e-05 0)
(-0.00108451 1.37404e-05 0)
(-0.00113301 1.36751e-05 0)
(-0.00118125 1.35865e-05 0)
(-0.00122913 1.34751e-05 0)
(-0.00127658 1.33414e-05 0)
(-0.00132352 1.3186e-05 0)
(-0.00136988 1.30095e-05 0)
(-0.00141558 1.28125e-05 0)
(-0.00146055 1.25956e-05 0)
(-0.00150471 1.23593e-05 0)
(-0.00154801 1.21042e-05 0)
(-0.00159038 1.18311e-05 0)
(-0.00163175 1.15404e-05 0)
(-0.00167207 1.12329e-05 0)
(-0.00171126 1.09091e-05 0)
(-0.00174928 1.05695e-05 0)
(-0.00178608 1.02148e-05 0)
(-0.00182159 9.84539e-06 0)
(-0.00185577 9.46212e-06 0)
(-0.00188857 9.06563e-06 0)
(-0.00191994 8.65646e-06 0)
(-0.00194984 8.2351e-06 0)
(-0.00197823 7.80212e-06 0)
(-0.00200506 7.35823e-06 0)
(-0.0020303 6.90415e-06 0)
(-0.00205392 6.44048e-06 0)
(-0.00207587 5.96774e-06 0)
(-0.00209614 5.48647e-06 0)
(-0.00211468 4.99728e-06 0)
(-0.00213148 4.50084e-06 0)
(-0.0021465 3.9979e-06 0)
(-0.00215974 3.48915e-06 0)
(-0.00217116 2.97515e-06 0)
(-0.00218075 2.45644e-06 0)
(-0.00218849 1.93374e-06 0)
(-0.00219438 1.40784e-06 0)
(-0.0021984 8.79422e-07 0)
(-0.00220054 3.49025e-07 0)
(-0.0022008 -1.82769e-07 0)
(-0.00219918 -7.1525e-07 0)
(-0.00219567 -1.24758e-06 0)
(-0.00219028 -1.77897e-06 0)
(-0.002183 -2.30882e-06 0)
(-0.00217386 -2.83651e-06 0)
(-0.00216285 -3.36124e-06 0)
(-0.00214999 -3.88218e-06 0)
(-0.0021353 -4.39866e-06 0)
(-0.00211879 -4.91006e-06 0)
(-0.00210048 -5.41566e-06 0)
(-0.00208039 -5.91461e-06 0)
(-0.00205855 -6.40607e-06 0)
(-0.00203499 -6.88929e-06 0)
(-0.00200974 -7.36357e-06 0)
(-0.00198283 -7.82817e-06 0)
(-0.00195429 -8.28227e-06 0)
(-0.00192418 -8.72505e-06 0)
(-0.00189252 -9.15576e-06 0)
(-0.00185936 -9.57369e-06 0)
(-0.00182476 -9.97803e-06 0)
(-0.00178875 -1.03679e-05 0)
(-0.00175139 -1.07427e-05 0)
(-0.00171275 -1.11015e-05 0)
(-0.00167286 -1.14438e-05 0)
(-0.0016318 -1.17686e-05 0)
(-0.00158963 -1.20751e-05 0)
(-0.00154642 -1.23626e-05 0)
(-0.00150223 -1.26303e-05 0)
(-0.00145713 -1.28776e-05 0)
(-0.0014112 -1.31038e-05 0)
(-0.00136452 -1.33081e-05 0)
(-0.00131715 -1.34897e-05 0)
(-0.0012692 -1.36479e-05 0)
(-0.00122072 -1.37823e-05 0)
(-0.00117182 -1.3892e-05 0)
(-0.00112258 -1.39766e-05 0)
(-0.00107309 -1.40352e-05 0)
(-0.00102344 -1.40673e-05 0)
(-0.000973724 -1.40723e-05 0)
(-0.000924041 -1.40498e-05 0)
(-0.000874486 -1.39993e-05 0)
(-0.000825158 -1.39202e-05 0)
(-0.000776158 -1.38118e-05 0)
(-0.000727589 -1.36737e-05 0)
(-0.000679554 -1.35056e-05 0)
(-0.000632157 -1.33073e-05 0)
(-0.000585504 -1.30785e-05 0)
(-0.000539702 -1.28187e-05 0)
(-0.000494858 -1.25277e-05 0)
(-0.00045108 -1.22052e-05 0)
(-0.000408475 -1.18511e-05 0)
(-0.000367152 -1.1465e-05 0)
(-0.000327219 -1.10472e-05 0)
(-0.000288784 -1.05977e-05 0)
(-0.000251952 -1.01167e-05 0)
(-0.000216829 -9.60446e-06 0)
(-0.00018352 -9.06117e-06 0)
(-0.000152125 -8.4872e-06 0)
(-0.000122744 -7.88316e-06 0)
(-9.54736e-05 -7.24987e-06 0)
(-7.04044e-05 -6.58834e-06 0)
(-4.76234e-05 -5.8998e-06 0)
(-2.72106e-05 -5.18587e-06 0)
(-9.23817e-06 -4.44861e-06 0)
(6.23159e-06 -3.69061e-06 0)
(1.91483e-05 -2.91527e-06 0)
(2.9477e-05 -2.12698e-06 0)
(3.72021e-05 -1.33152e-06 0)
(4.23324e-05 -5.36583e-07 0)
(4.49088e-05 2.47433e-07 0)
(4.50137e-05 1.00598e-06 0)
(4.27852e-05 1.71827e-06 0)
(3.84366e-05 2.35382e-06 0)
(3.22867e-05 2.86651e-06 0)
(2.48015e-05 3.18623e-06 0)
(1.66456e-05 3.2082e-06 0)
(8.76864e-06 2.77588e-06 0)
(2.64519e-06 1.69642e-06 0)
(1.24344e-07 1.24815e-07 0)
(1.78826e-06 -2.8599e-06 0)
(9.38896e-06 -9.37627e-06 0)
(2.3105e-05 -1.33776e-05 0)
(3.92902e-05 -1.46801e-05 0)
(5.5105e-05 -1.39084e-05 0)
(6.85587e-05 -1.16343e-05 0)
(7.81117e-05 -8.29828e-06 0)
(8.26112e-05 -4.23093e-06 0)
(8.12248e-05 3.28739e-07 0)
(7.33787e-05 5.20499e-06 0)
(5.86891e-05 1.02702e-05 0)
(3.69262e-05 1.54279e-05 0)
(7.97364e-06 2.06062e-05 0)
(-2.81895e-05 2.57502e-05 0)
(-7.15154e-05 3.08172e-05 0)
(-0.000121899 3.57745e-05 0)
(-0.000179189 4.05962e-05 0)
(-0.0002432 4.52625e-05 0)
(-0.000313717 4.97577e-05 0)
(-0.000390503 5.40696e-05 0)
(-0.000473304 5.81895e-05 0)
(-0.00056185 6.2109e-05 0)
(-0.000655862 6.58242e-05 0)
(-0.000755052 6.93298e-05 0)
(-0.000859125 7.26248e-05 0)
(-0.000967783 7.57062e-05 0)
(-0.00108072 7.8575e-05 0)
(-0.00119765 8.12296e-05 0)
(-0.00131825 8.36716e-05 0)
(-0.00144222 8.59018e-05 0)
(-0.00156927 8.79222e-05 0)
(-0.00169908 8.9734e-05 0)
(-0.00183138 9.13403e-05 0)
(-0.00196585 9.2743e-05 0)
(-0.00210221 9.39447e-05 0)
(-0.00224017 9.49489e-05 0)
(-0.00237945 9.57589e-05 0)
(-0.00251977 9.63778e-05 0)
(-0.00266085 9.68093e-05 0)
(-0.00280243 9.70569e-05 0)
(-0.00294423 9.71241e-05 0)
(-0.00308601 9.70144e-05 0)
(-0.00322749 9.67317e-05 0)
(-0.00336845 9.62801e-05 0)
(-0.00350863 9.56636e-05 0)
(-0.00364779 9.4886e-05 0)
(-0.0037857 9.39512e-05 0)
(-0.00392215 9.28633e-05 0)
(-0.00405689 9.16266e-05 0)
(-0.00418973 9.0245e-05 0)
(-0.00432045 8.87224e-05 0)
(-0.00444885 8.70634e-05 0)
(-0.00457473 8.52718e-05 0)
(-0.0046979 8.33519e-05 0)
(-0.00481817 8.13076e-05 0)
(-0.00493538 7.91435e-05 0)
(-0.00504934 7.68637e-05 0)
(-0.00515989 7.44724e-05 0)
(-0.00526686 7.19738e-05 0)
(-0.00537011 6.93718e-05 0)
(-0.00546949 6.6671e-05 0)
(-0.00556485 6.38757e-05 0)
(-0.00565606 6.09902e-05 0)
(-0.00574298 5.80188e-05 0)
(-0.00582551 5.49655e-05 0)
(-0.00590352 5.18349e-05 0)
(-0.00597689 4.86313e-05 0)
(-0.00604553 4.53592e-05 0)
(-0.00610935 4.20231e-05 0)
(-0.00616824 3.86272e-05 0)
(-0.00622212 3.51759e-05 0)
(-0.00627093 3.16738e-05 0)
(-0.00631458 2.81255e-05 0)
(-0.00635301 2.45356e-05 0)
(-0.00638616 2.09086e-05 0)
(-0.006414 1.72492e-05 0)
(-0.00643646 1.35621e-05 0)
(-0.00645351 9.85214e-06 0)
(-0.00646513 6.12421e-06 0)
(-0.00647129 2.38297e-06 0)
(-0.00647198 -1.36682e-06 0)
(-0.00646718 -5.12028e-06 0)
(-0.0064569 -8.87238e-06 0)
(-0.00644115 -1.2618e-05 0)
(-0.00641992 -1.63522e-05 0)
(-0.00639326 -2.00701e-05 0)
(-0.00636118 -2.37663e-05 0)
(-0.00632372 -2.74356e-05 0)
(-0.00628092 -3.10728e-05 0)
(-0.00623284 -3.46728e-05 0)
(-0.00617954 -3.82305e-05 0)
(-0.00612107 -4.17404e-05 0)
(-0.00605752 -4.5197e-05 0)
(-0.00598897 -4.85949e-05 0)
(-0.00591551 -5.19289e-05 0)
(-0.00583723 -5.51937e-05 0)
(-0.00575424 -5.83838e-05 0)
(-0.00566666 -6.14935e-05 0)
(-0.00557461 -6.45176e-05 0)
(-0.00547821 -6.74507e-05 0)
(-0.0053776 -7.02874e-05 0)
(-0.00527294 -7.30221e-05 0)
(-0.00516436 -7.56493e-05 0)
(-0.00505204 -7.81637e-05 0)
(-0.00493614 -8.05602e-05 0)
(-0.00481684 -8.28336e-05 0)
(-0.00469432 -8.49783e-05 0)
(-0.00456878 -8.69892e-05 0)
(-0.00444041 -8.88611e-05 0)
(-0.00430941 -9.0589e-05 0)
(-0.00417602 -9.2168e-05 0)
(-0.00404043 -9.35931e-05 0)
(-0.00390289 -9.48596e-05 0)
(-0.00376363 -9.59628e-05 0)
(-0.00362288 -9.6898e-05 0)
(-0.0034809 -9.7661e-05 0)
(-0.00333793 -9.82475e-05 0)
(-0.00319425 -9.86533e-05 0)
(-0.0030501 -9.88745e-05 0)
(-0.00290578 -9.89071e-05 0)
(-0.00276154 -9.87478e-05 0)
(-0.00261768 -9.83934e-05 0)
(-0.00247447 -9.78405e-05 0)
(-0.0023322 -9.7086e-05 0)
(-0.00219118 -9.6127e-05 0)
(-0.00205169 -9.49613e-05 0)
(-0.00191405 -9.35868e-05 0)
(-0.00177853 -9.20018e-05 0)
(-0.00164546 -9.02049e-05 0)
(-0.00151514 -8.81948e-05 0)
(-0.00138788 -8.59708e-05 0)
(-0.00126397 -8.35326e-05 0)
(-0.00114374 -8.08805e-05 0)
(-0.00102747 -7.80151e-05 0)
(-0.000915479 -7.4938e-05 0)
(-0.000808059 -7.16515e-05 0)
(-0.000705505 -6.81585e-05 0)
(-0.000608104 -6.44628e-05 0)
(-0.000516138 -6.05691e-05 0)
(-0.000429877 -5.64837e-05 0)
(-0.00034958 -5.22145e-05 0)
(-0.000275491 -4.77712e-05 0)
(-0.000207839 -4.31657e-05 0)
(-0.000146828 -3.84127e-05 0)
(-9.26391e-05 -3.35302e-05 0)
(-4.54205e-05 -2.85408e-05 0)
(-5.28143e-06 -2.34726e-05 0)
(2.77168e-05 -1.83608e-05 0)
(5.35723e-05 -1.32501e-05 0)
(7.23569e-05 -8.19737e-06 0)
(8.42357e-05 -3.27637e-06 0)
(8.94915e-05 1.41619e-06 0)
(8.85577e-05 5.75167e-06 0)
(8.20599e-05 9.5568e-06 0)
(7.08721e-05 1.25954e-05 0)
(5.61837e-05 1.45474e-05 0)
(3.95497e-05 1.49895e-05 0)
(2.29511e-05 1.33822e-05 0)
(9.16147e-06 9.16795e-06 0)
(1.69232e-06 2.64274e-06 0)
(2.82392e-06 -9.07378e-06 0)
(1.33851e-05 -2.31007e-05 0)
(3.09972e-05 -3.09764e-05 0)
(5.06919e-05 -3.30151e-05 0)
(6.8876e-05 -3.03137e-05 0)
(8.2989e-05 -2.39663e-05 0)
(9.09547e-05 -1.49012e-05 0)
(9.11321e-05 -3.86334e-06 0)
(8.22935e-05 8.56708e-06 0)
(6.35445e-05 2.19436e-05 0)
(3.42682e-05 3.5921e-05 0)
(-5.93776e-06 5.02336e-05 0)
(-5.72931e-05 6.46749e-05 0)
(-0.000119878 7.90829e-05 0)
(-0.000193657 9.33301e-05 0)
(-0.000278501 0.000107316 0)
(-0.000374207 0.00012096 0)
(-0.000480511 0.000134201 0)
(-0.000597099 0.000146986 0)
(-0.000723618 0.000159276 0)
(-0.000859685 0.000171041 0)
(-0.00100489 0.000182254 0)
(-0.0011588 0.000192898 0)
(-0.00132097 0.000202959 0)
(-0.00149094 0.000212426 0)
(-0.00166825 0.000221292 0)
(-0.00185242 0.000229553 0)
(-0.00204296 0.000237207 0)
(-0.00223941 0.000244254 0)
(-0.00244128 0.000250696 0)
(-0.00264809 0.000256536 0)
(-0.00285936 0.000261779 0)
(-0.00307461 0.000266429 0)
(-0.00329337 0.000270493 0)
(-0.00351517 0.000273979 0)
(-0.00373956 0.000276894 0)
(-0.00396607 0.000279247 0)
(-0.00419426 0.000281046 0)
(-0.00442368 0.000282301 0)
(-0.0046539 0.000283023 0)
(-0.00488448 0.000283221 0)
(-0.00511502 0.000282905 0)
(-0.00534509 0.000282086 0)
(-0.00557429 0.000280775 0)
(-0.00580223 0.000278984 0)
(-0.00602852 0.000276723 0)
(-0.00625278 0.000274004 0)
(-0.00647465 0.000270839 0)
(-0.00669377 0.000267239 0)
(-0.00690979 0.000263215 0)
(-0.00712236 0.000258781 0)
(-0.00733117 0.000253947 0)
(-0.00753588 0.000248727 0)
(-0.00773619 0.000243131 0)
(-0.00793179 0.000237172 0)
(-0.0081224 0.000230862 0)
(-0.00830774 0.000224214 0)
(-0.00848752 0.000217239 0)
(-0.0086615 0.000209951 0)
(-0.00882941 0.000202361 0)
(-0.00899102 0.000194481 0)
(-0.0091461 0.000186325 0)
(-0.00929443 0.000177905 0)
(-0.00943579 0.000169233 0)
(-0.00956999 0.000160322 0)
(-0.00969683 0.000151185 0)
(-0.00981614 0.000141835 0)
(-0.00992775 0.000132284 0)
(-0.0100315 0.000122546 0)
(-0.0101272 0.000112633 0)
(-0.0102148 0.000102559 0)
(-0.0102941 9.23366e-05 0)
(-0.0103651 8.19795e-05 0)
(-0.0104275 7.15011e-05 0)
(-0.0104814 6.09146e-05 0)
(-0.0105266 5.02339e-05 0)
(-0.010563 3.94729e-05 0)
(-0.0105907 2.86455e-05 0)
(-0.0106095 1.77657e-05 0)
(-0.0106195 6.84767e-06 0)
(-0.0106205 -4.0944e-06 0)
(-0.0106126 -1.50462e-05 0)
(-0.0105958 -2.59932e-05 0)
(-0.0105701 -3.69208e-05 0)
(-0.0105355 -4.78141e-05 0)
(-0.010492 -5.86582e-05 0)
(-0.0104397 -6.94384e-05 0)
(-0.0103787 -8.01394e-05 0)
(-0.0103091 -9.07459e-05 0)
(-0.0102308 -0.000101243 0)
(-0.010144 -0.000111614 0)
(-0.0100489 -0.000121845 0)
(-0.00994545 -0.00013192 0)
(-0.00983391 -0.000141822 0)
(-0.00971439 -0.000151537 0)
(-0.00958704 -0.000161049 0)
(-0.00945205 -0.000170342 0)
(-0.0093096 -0.0001794 0)
(-0.00915988 -0.000188206 0)
(-0.00900311 -0.000196747 0)
(-0.00883951 -0.000205005 0)
(-0.00866932 -0.000212965 0)
(-0.00849279 -0.000220612 0)
(-0.00831018 -0.000227929 0)
(-0.00812176 -0.000234901 0)
(-0.00792783 -0.000241513 0)
(-0.00772867 -0.00024775 0)
(-0.00752461 -0.000253597 0)
(-0.00731597 -0.000259038 0)
(-0.00710308 -0.000264061 0)
(-0.00688628 -0.000268649 0)
(-0.00666595 -0.000272789 0)
(-0.00644244 -0.000276468 0)
(-0.00621614 -0.000279671 0)
(-0.00598743 -0.000282387 0)
(-0.00575672 -0.000284602 0)
(-0.00552442 -0.000286303 0)
(-0.00529095 -0.000287481 0)
(-0.00505674 -0.000288122 0)
(-0.00482222 -0.000288218 0)
(-0.00458784 -0.000287757 0)
(-0.00435406 -0.00028673 0)
(-0.00412133 -0.000285129 0)
(-0.00389012 -0.000282945 0)
(-0.0036609 -0.000280171 0)
(-0.00343416 -0.000276801 0)
(-0.00321037 -0.000272829 0)
(-0.00299001 -0.000268251 0)
(-0.00277357 -0.000263063 0)
(-0.00256155 -0.000257263 0)
(-0.00235443 -0.00025085 0)
(-0.0021527 -0.000243825 0)
(-0.00195685 -0.000236189 0)
(-0.00176736 -0.000227947 0)
(-0.0015847 -0.000219102 0)
(-0.00140936 -0.000209665 0)
(-0.00124178 -0.000199645 0)
(-0.00108243 -0.000189057 0)
(-0.00093173 -0.000177915 0)
(-0.000790111 -0.000166242 0)
(-0.000657966 -0.000154064 0)
(-0.000535668 -0.000141411 0)
(-0.000423559 -0.000128322 0)
(-0.000321943 -0.000114844 0)
(-0.000231079 -0.000101033 0)
(-0.000151175 -8.69613e-05 0)
(-8.23709e-05 -7.2713e-05 0)
(-2.47276e-05 -5.8395e-05 0)
(2.17894e-05 -4.414e-05 0)
(5.73326e-05 -3.01138e-05 0)
(8.21988e-05 -1.65262e-05 0)
(9.68625e-05 -3.64388e-06 0)
(0.000102017 8.19117e-06 0)
(9.86233e-05 1.85386e-05 0)
(8.79715e-05 2.68323e-05 0)
(7.1744e-05 3.23531e-05 0)
(5.20414e-05 3.42188e-05 0)
(3.14069e-05 3.14103e-05 0)
(1.33714e-05 2.29537e-05 0)
(2.76863e-06 8.75728e-06 0)
(3.19909e-06 -1.69088e-05 0)
(1.47117e-05 -3.93109e-05 0)
(3.31019e-05 -5.06863e-05 0)
(5.25172e-05 -5.23943e-05 0)
(6.88556e-05 -4.61699e-05 0)
(7.92105e-05 -3.36851e-05 0)
(8.1171e-05 -1.64003e-05 0)
(7.27936e-05 4.47226e-06 0)
(5.25714e-05 2.79536e-05 0)
(1.93821e-05 5.32612e-05 0)
(-2.75849e-05 7.97745e-05 0)
(-8.88679e-05 0.000107001 0)
(-0.000164791 0.000134548 0)
(-0.000255491 0.000162104 0)
(-0.000360961 0.000189419 0)
(-0.000481063 0.000216293 0)
(-0.000615564 0.000242564 0)
(-0.000764141 0.000268103 0)
(-0.000926408 0.000292805 0)
(-0.00110192 0.000316588 0)
(-0.00129018 0.000339383 0)
(-0.00149067 0.000361138 0)
(-0.00170282 0.000381812 0)
(-0.00192605 0.000401374 0)
(-0.00215976 0.000419798 0)
(-0.00240333 0.000437068 0)
(-0.00265614 0.000453172 0)
(-0.00291754 0.000468105 0)
(-0.0031869 0.000481863 0)
(-0.00346357 0.000494447 0)
(-0.00374691 0.000505862 0)
(-0.00403628 0.000516114 0)
(-0.00433103 0.000525212 0)
(-0.00463052 0.000533167 0)
(-0.00493414 0.000539992 0)
(-0.00524125 0.000545702 0)
(-0.00555123 0.000550311 0)
(-0.00586347 0.000553836 0)
(-0.00617738 0.000556296 0)
(-0.00649236 0.000557707 0)
(-0.00680784 0.00055809 0)
(-0.00712322 0.000557465 0)
(-0.00743797 0.000555851 0)
(-0.00775152 0.00055327 0)
(-0.00806335 0.000549743 0)
(-0.00837291 0.000545292 0)
(-0.0086797 0.00053994 0)
(-0.00898322 0.000533708 0)
(-0.00928297 0.000526619 0)
(-0.00957847 0.000518697 0)
(-0.00986927 0.000509964 0)
(-0.0101549 0.000500443 0)
(-0.010435 0.000490159 0)
(-0.010709 0.000479135 0)
(-0.0109766 0.000467395 0)
(-0.0112373 0.000454962 0)
(-0.0114909 0.000441861 0)
(-0.0117368 0.000428116 0)
(-0.0119748 0.000413751 0)
(-0.0122045 0.000398791 0)
(-0.0124256 0.00038326 0)
(-0.0126377 0.000367182 0)
(-0.0128406 0.000350583 0)
(-0.013034 0.000333488 0)
(-0.0132175 0.000315921 0)
(-0.013391 0.000297907 0)
(-0.0135542 0.000279472 0)
(-0.0137068 0.000260642 0)
(-0.0138487 0.000241442 0)
(-0.0139796 0.000221897 0)
(-0.0140994 0.000202035 0)
(-0.0142078 0.00018188 0)
(-0.0143048 0.00016146 0)
(-0.0143901 0.000140801 0)
(-0.0144637 0.00011993 0)
(-0.0145255 9.88732e-05 0)
(-0.0145752 7.7659e-05 0)
(-0.014613 5.63144e-05 0)
(-0.0146386 3.48672e-05 0)
(-0.0146521 1.33452e-05 0)
(-0.0146534 -8.22295e-06 0)
(-0.0146425 -2.98091e-05 0)
(-0.0146194 -5.13846e-05 0)
(-0.0145841 -7.29207e-05 0)
(-0.0145367 -9.4388e-05 0)
(-0.0144771 -0.000115757 0)
(-0.0144055 -0.000136998 0)
(-0.014322 -0.000158082 0)
(-0.0142265 -0.000178979 0)
(-0.0141194 -0.000199657 0)
(-0.0140006 -0.000220088 0)
(-0.0138704 -0.000240239 0)
(-0.0137288 -0.000260081 0)
(-0.0135762 -0.000279583 0)
(-0.0134126 -0.000298713 0)
(-0.0132384 -0.000317441 0)
(-0.0130537 -0.000335737 0)
(-0.0128588 -0.000353568 0)
(-0.012654 -0.000370903 0)
(-0.0124395 -0.000387712 0)
(-0.0122158 -0.000403964 0)
(-0.011983 -0.000419628 0)
(-0.0117415 -0.000434673 0)
(-0.0114918 -0.000449069 0)
(-0.0112341 -0.000462785 0)
(-0.0109689 -0.000475791 0)
(-0.0106966 -0.000488058 0)
(-0.0104176 -0.000499556 0)
(-0.0101323 -0.000510257 0)
(-0.00984124 -0.000520131 0)
(-0.00954484 -0.000529152 0)
(-0.00924361 -0.000537292 0)
(-0.00893804 -0.000544524 0)
(-0.00862865 -0.000550822 0)
(-0.00831599 -0.000556161 0)
(-0.00800058 -0.000560516 0)
(-0.007683 -0.000563864 0)
(-0.00736381 -0.000566183 0)
(-0.0070436 -0.000567451 0)
(-0.00672297 -0.000567647 0)
(-0.0064025 -0.000566753 0)
(-0.00608283 -0.000564751 0)
(-0.00576458 -0.000561624 0)
(-0.00544837 -0.000557357 0)
(-0.00513485 -0.000551937 0)
(-0.00482466 -0.000545353 0)
(-0.00451846 -0.000537593 0)
(-0.00421689 -0.000528651 0)
(-0.00392061 -0.000518522 0)
(-0.00363028 -0.000507201 0)
(-0.00334657 -0.000494689 0)
(-0.00307011 -0.000480988 0)
(-0.00280157 -0.000466104 0)
(-0.0025416 -0.000450047 0)
(-0.00229081 -0.000432829 0)
(-0.00204986 -0.000414469 0)
(-0.00181933 -0.000394991 0)
(-0.00159984 -0.000374423 0)
(-0.00139195 -0.000352803 0)
(-0.00119621 -0.000330174 0)
(-0.00101314 -0.000306592 0)
(-0.000843206 -0.000282122 0)
(-0.000686856 -0.000256844 0)
(-0.000544468 -0.000230855 0)
(-0.000416362 -0.00020427 0)
(-0.000302782 -0.000177233 0)
(-0.000203884 -0.000149915 0)
(-0.000119717 -0.000122526 0)
(-5.02001e-05 -9.53253e-05 0)
(4.89726e-06 -6.86313e-05 0)
(4.59909e-05 -4.28395e-05 0)
(7.37159e-05 -1.84419e-05 0)
(8.89699e-05 3.9474e-06 0)
(9.29612e-05 2.35615e-05 0)
(8.72656e-05 3.94483e-05 0)
(7.38839e-05 5.04429e-05 0)
(5.52529e-05 5.51629e-05 0)
(3.42718e-05 5.20536e-05 0)
(1.49966e-05 3.956e-05 0)
(3.20223e-06 1.66259e-05 0)
(3.12391e-06 -2.48626e-05 0)
(1.3989e-05 -5.51966e-05 0)
(3.05306e-05 -6.8951e-05 0)
(4.65195e-05 -6.87702e-05 0)
(5.75789e-05 -5.71647e-05 0)
(6.05792e-05 -3.6436e-05 0)
(5.29172e-05 -8.59047e-06 0)
(3.246e-05 2.46788e-05 0)
(-2.46838e-06 6.19726e-05 0)
(-5.31531e-05 0.000102147 0)
(-0.000120533 0.000144274 0)
(-0.000205261 0.0001876 0)
(-0.000307736 0.000231515 0)
(-0.000428152 0.000275525 0)
(-0.000566523 0.000319227 0)
(-0.000722718 0.000362296 0)
(-0.000896478 0.000404467 0)
(-0.00108744 0.000445523 0)
(-0.00129516 0.000485288 0)
(-0.00151912 0.000523619 0)
(-0.00175873 0.000560403 0)
(-0.00201337 0.000595545 0)
(-0.00228236 0.000628974 0)
(-0.00256502 0.000660631 0)
(-0.00286059 0.000690472 0)
(-0.00316835 0.000718465 0)
(-0.00348752 0.000744587 0)
(-0.00381732 0.000768822 0)
(-0.00415696 0.000791164 0)
(-0.00450567 0.00081161 0)
(-0.00486263 0.000830164 0)
(-0.00522707 0.000846835 0)
(-0.00559818 0.000861635 0)
(-0.00597518 0.000874579 0)
(-0.00635729 0.000885687 0)
(-0.00674373 0.000894978 0)
(-0.00713373 0.000902479 0)
(-0.00752654 0.000908212 0)
(-0.00792139 0.000912208 0)
(-0.00831757 0.000914493 0)
(-0.00871433 0.000915099 0)
(-0.00911096 0.000914056 0)
(-0.00950677 0.000911399 0)
(-0.00990107 0.000907159 0)
(-0.0102932 0.000901372 0)
(-0.0106824 0.000894072 0)
(-0.0110682 0.000885295 0)
(-0.0114498 0.000875078 0)
(-0.0118267 0.000863457 0)
(-0.0121983 0.00085047 0)
(-0.0125639 0.000836153 0)
(-0.0129231 0.000820546 0)
(-0.0132752 0.000803685 0)
(-0.0136197 0.000785611 0)
(-0.0139561 0.000766362 0)
(-0.014284 0.000745976 0)
(-0.0146027 0.000724494 0)
(-0.0149119 0.000701954 0)
(-0.0152111 0.000678397 0)
(-0.0154999 0.000653862 0)
(-0.0157779 0.000628391 0)
(-0.0160445 0.000602022 0)
(-0.0162996 0.000574797 0)
(-0.0165427 0.000546757 0)
(-0.0167734 0.000517943 0)
(-0.0169915 0.000488397 0)
(-0.0171966 0.000458159 0)
(-0.0173885 0.000427272 0)
(-0.0175668 0.000395778 0)
(-0.0177313 0.00036372 0)
(-0.0178818 0.000331139 0)
(-0.0180181 0.000298081 0)
(-0.0181399 0.000264587 0)
(-0.0182471 0.000230701 0)
(-0.0183395 0.000196468 0)
(-0.018417 0.000161933 0)
(-0.0184795 0.000127139 0)
(-0.0185268 9.2133e-05 0)
(-0.018559 5.69596e-05 0)
(-0.0185758 2.16651e-05 0)
(-0.0185773 -1.37041e-05 0)
(-0.0185635 -4.91011e-05 0)
(-0.0185343 -8.44789e-05 0)
(-0.0184898 -0.00011979 0)
(-0.0184301 -0.000154987 0)
(-0.0183551 -0.000190021 0)
(-0.0182649 -0.000224844 0)
(-0.0181598 -0.000259406 0)
(-0.0180397 -0.000293659 0)
(-0.0179049 -0.000327553 0)
(-0.0177554 -0.000361037 0)
(-0.0175916 -0.000394062 0)
(-0.0174136 -0.000426578 0)
(-0.0172216 -0.000458534 0)
(-0.0170159 -0.000489879 0)
(-0.0167968 -0.000520563 0)
(-0.0165646 -0.000550536 0)
(-0.0163195 -0.000579745 0)
(-0.016062 -0.000608141 0)
(-0.0157925 -0.000635673 0)
(-0.0155111 -0.00066229 0)
(-0.0152185 -0.000687942 0)
(-0.0149151 -0.000712578 0)
(-0.0146012 -0.000736149 0)
(-0.0142773 -0.000758606 0)
(-0.013944 -0.0007799 0)
(-0.0136017 -0.000799982 0)
(-0.0132511 -0.000818805 0)
(-0.0128926 -0.000836321 0)
(-0.0125268 -0.000852485 0)
(-0.0121543 -0.000867252 0)
(-0.0117757 -0.000880576 0)
(-0.0113918 -0.000892416 0)
(-0.011003 -0.000902728 0)
(-0.01061 -0.000911472 0)
(-0.0102137 -0.00091861 0)
(-0.00981457 -0.000924102 0)
(-0.00941343 -0.000927912 0)
(-0.00901099 -0.000930008 0)
(-0.00860798 -0.000930355 0)
(-0.00820517 -0.000928924 0)
(-0.00780331 -0.000925687 0)
(-0.0074032 -0.000920617 0)
(-0.00700561 -0.000913691 0)
(-0.00661133 -0.000904888 0)
(-0.00622118 -0.000894192 0)
(-0.00583596 -0.000881587 0)
(-0.00545647 -0.000867063 0)
(-0.00508354 -0.000850613 0)
(-0.00471797 -0.000832233 0)
(-0.00436058 -0.000811925 0)
(-0.00401218 -0.000789695 0)
(-0.00367356 -0.000765555 0)
(-0.00334553 -0.000739524 0)
(-0.00302886 -0.000711628 0)
(-0.00272431 -0.000681898 0)
(-0.00243263 -0.000650377 0)
(-0.00215455 -0.000617118 0)
(-0.00189075 -0.000582184 0)
(-0.0016419 -0.000545652 0)
(-0.00140861 -0.000507618 0)
(-0.00119146 -0.000468194 0)
(-0.000990943 -0.000427514 0)
(-0.000807518 -0.000385742 0)
(-0.000641547 -0.000343072 0)
(-0.000493302 -0.000299739 0)
(-0.000362945 -0.000256025 0)
(-0.000250507 -0.000212271 0)
(-0.000155867 -0.00016889 0)
(-7.87272e-05 -0.000126386 0)
(-1.85747e-05 -8.53712e-05 0)
(2.5348e-05 -4.65967e-05 0)
(5.40865e-05 -1.09791e-05 0)
(6.90182e-05 2.03631e-05 0)
(7.19045e-05 4.6074e-05 0)
(6.49427e-05 6.45304e-05 0)
(5.07771e-05 7.38314e-05 0)
(3.25412e-05 7.18321e-05 0)
(1.46041e-05 5.62476e-05 0)
(3.18773e-06 2.47893e-05 0)
(2.75907e-06 -3.20036e-05 0)
(1.17922e-05 -6.88014e-05 0)
(2.43769e-05 -8.32564e-05 0)
(3.4372e-05 -7.92867e-05 0)
(3.73375e-05 -6.02303e-05 0)
(3.00342e-05 -2.90444e-05 0)
(9.75783e-06 1.17084e-05 0)
(-2.57158e-05 5.98525e-05 0)
(-7.81627e-05 0.000113563 0)
(-0.000148957 0.000171324 0)
(-0.000239126 0.000231883 0)
(-0.000349391 0.000294207 0)
(-0.000480213 0.000357445 0)
(-0.000631819 0.000420899 0)
(-0.000804246 0.000483994 0)
(-0.000997361 0.000546256 0)
(-0.00121089 0.000607298 0)
(-0.00144444 0.000666797 0)
(-0.00169751 0.000724492 0)
(-0.00196952 0.000780167 0)
(-0.00225982 0.000833646 0)
(-0.00256769 0.000884786 0)
(-0.00289236 0.000933474 0)
(-0.00323303 0.000979616 0)
(-0.00358886 0.00102314 0)
(-0.00395898 0.001064 0)
(-0.0043425 0.00110215 0)
(-0.00473852 0.00113756 0)
(-0.00514613 0.00117023 0)
(-0.00556438 0.00120013 0)
(-0.00599237 0.00122728 0)
(-0.00642914 0.00125168 0)
(-0.00687378 0.00127334 0)
(-0.00732536 0.00129229 0)
(-0.00778294 0.00130855 0)
(-0.00824562 0.00132216 0)
(-0.00871249 0.00133313 0)
(-0.00918264 0.00134151 0)
(-0.00965519 0.00134734 0)
(-0.0101293 0.00135065 0)
(-0.010604 0.0013515 0)
(-0.0110786 0.00134992 0)
(-0.0115521 0.00134597 0)
(-0.0120238 0.00133968 0)
(-0.0124928 0.00133112 0)
(-0.0129585 0.00132032 0)
(-0.0134199 0.00130735 0)
(-0.0138764 0.00129225 0)
(-0.0143272 0.00127508 0)
(-0.0147716 0.0012559 0)
(-0.0152089 0.00123476 0)
(-0.0156384 0.0012117 0)
(-0.0160595 0.0011868 0)
(-0.0164716 0.00116011 0)
(-0.0168739 0.00113168 0)
(-0.017266 0.00110157 0)
(-0.0176472 0.00106984 0)
(-0.018017 0.00103655 0)
(-0.0183748 0.00100176 0)
(-0.0187201 0.000965517 0)
(-0.0190525 0.000927893 0)
(-0.0193714 0.000888944 0)
(-0.0196764 0.000848729 0)
(-0.019967 0.000807309 0)
(-0.0202429 0.000764746 0)
(-0.0205036 0.0007211 0)
(-0.0207489 0.000676433 0)
(-0.0209782 0.000630807 0)
(-0.0211914 0.000584284 0)
(-0.021388 0.000536928 0)
(-0.0215679 0.000488802 0)
(-0.0217308 0.000439969 0)
(-0.0218764 0.000390494 0)
(-0.0220044 0.000340441 0)
(-0.0221149 0.000289877 0)
(-0.0222074 0.000238866 0)
(-0.022282 0.000187476 0)
(-0.0223385 0.000135773 0)
(-0.0223768 8.38249e-05 0)
(-0.0223968 3.16999e-05 0)
(-0.0223985 -2.05335e-05 0)
(-0.0223818 -7.28061e-05 0)
(-0.0223468 -0.000125048 0)
(-0.0222934 -0.00017719 0)
(-0.0222218 -0.00022916 0)
(-0.022132 -0.000280887 0)
(-0.0220241 -0.0003323 0)
(-0.0218982 -0.000383325 0)
(-0.0217545 -0.000433891 0)
(-0.0215932 -0.000483923 0)
(-0.0214144 -0.000533349 0)
(-0.0212184 -0.000582094 0)
(-0.0210055 -0.000630085 0)
(-0.0207758 -0.000677246 0)
(-0.0205298 -0.000723504 0)
(-0.0202678 -0.000768783 0)
(-0.01999 -0.000813009 0)
(-0.019697 -0.000856107 0)
(-0.0193891 -0.000898002 0)
(-0.0190667 -0.00093862 0)
(-0.0187303 -0.000977886 0)
(-0.0183805 -0.00101573 0)
(-0.0180176 -0.00105207 0)
(-0.0176423 -0.00108683 0)
(-0.0172552 -0.00111996 0)
(-0.0168567 -0.00115136 0)
(-0.0164475 -0.00118098 0)
(-0.0160283 -0.00120874 0)
(-0.0155997 -0.00123457 0)
(-0.0151625 -0.00125842 0)
(-0.0147172 -0.0012802 0)
(-0.0142646 -0.00129985 0)
(-0.0138056 -0.00131732 0)
(-0.0133408 -0.00133254 0)
(-0.0128711 -0.00134545 0)
(-0.0123972 -0.001356 0)
(-0.01192 -0.00136413 0)
(-0.0114404 -0.00136978 0)
(-0.0109592 -0.00137292 0)
(-0.0104773 -0.00137348 0)
(-0.00999553 -0.00137143 0)
(-0.00951489 -0.00136673 0)
(-0.00903627 -0.00135935 0)
(-0.0085606 -0.00134924 0)
(-0.00808881 -0.00133638 0)
(-0.00762186 -0.00132074 0)
(-0.0071607 -0.00130232 0)
(-0.00670628 -0.00128108 0)
(-0.00625957 -0.00125704 0)
(-0.00582152 -0.00123017 0)
(-0.00539308 -0.00120049 0)
(-0.0049752 -0.00116802 0)
(-0.00456883 -0.00113277 0)
(-0.00417489 -0.00109477 0)
(-0.00379428 -0.00105406 0)
(-0.0034279 -0.0010107 0)
(-0.00307662 -0.000964761 0)
(-0.00274127 -0.000916314 0)
(-0.00242264 -0.000865462 0)
(-0.0021215 -0.000812326 0)
(-0.00183855 -0.000757049 0)
(-0.00157444 -0.000699802 0)
(-0.00132974 -0.000640791 0)
(-0.00110495 -0.000580259 0)
(-0.000900477 -0.000518494 0)
(-0.00071661 -0.000455843 0)
(-0.000553516 -0.000392716 0)
(-0.000411214 -0.000329608 0)
(-0.000289551 -0.000267107 0)
(-0.000188175 -0.000205924 0)
(-0.000106507 -0.000146912 0)
(-4.3705e-05 -9.10972e-05 0)
(1.37469e-06 -3.97146e-05 0)
(3.02144e-05 5.75472e-06 0)
(4.46836e-05 4.35454e-05 0)
(4.7088e-05 7.15713e-05 0)
(4.0186e-05 8.74009e-05 0)
(2.72448e-05 8.82636e-05 0)
(1.27374e-05 7.10789e-05 0)
(2.88249e-06 3.23159e-05 0)
(2.21355e-06 -3.76948e-05 0)
(8.55838e-06 -7.86171e-05 0)
(1.5562e-05 -9.1562e-05 0)
(1.75162e-05 -8.15782e-05 0)
(1.01106e-05 -5.28081e-05 0)
(-9.91188e-06 -8.85673e-06 0)
(-4.5268e-05 4.7164e-05 0)
(-9.82079e-05 0.000112602 0)
(-0.000170537 0.000185213 0)
(-0.000263671 0.000263108 0)
(-0.000378678 0.000344704 0)
(-0.000516319 0.000428679 0)
(-0.000677081 0.000513932 0)
(-0.000861217 0.000599543 0)
(-0.00106877 0.000684751 0)
(-0.0012996 0.00076892 0)
(-0.00155342 0.00085152 0)
(-0.00182981 0.000932115 0)
(-0.00212822 0.00101034 0)
(-0.00244801 0.00108589 0)
(-0.00278848 0.00115853 0)
(-0.00314882 0.00122804 0)
(-0.00352819 0.00129427 0)
(-0.00392568 0.00135708 0)
(-0.00434037 0.00141637 0)
(-0.00477127 0.00147206 0)
(-0.00521739 0.00152408 0)
(-0.00567771 0.00157239 0)
(-0.0061512 0.00161696 0)
(-0.00663679 0.00165779 0)
(-0.00713345 0.00169486 0)
(-0.00764011 0.00172819 0)
(-0.00815572 0.00175778 0)
(-0.00867921 0.00178367 0)
(-0.00920953 0.00180588 0)
(-0.00974563 0.00182445 0)
(-0.0102865 0.00183943 0)
(-0.010831 0.00185085 0)
(-0.0113783 0.00185877 0)
(-0.0119273 0.00186324 0)
(-0.0124769 0.00186432 0)
(-0.0130264 0.00186207 0)
(-0.0135745 0.00185655 0)
(-0.0141205 0.00184783 0)
(-0.0146634 0.00183598 0)
(-0.0152024 0.00182105 0)
(-0.0157364 0.00180313 0)
(-0.0162647 0.00178229 0)
(-0.0167864 0.00175859 0)
(-0.0173006 0.00173211 0)
(-0.0178067 0.00170294 0)
(-0.0183037 0.00167113 0)
(-0.018791 0.00163678 0)
(-0.0192677 0.00159995 0)
(-0.0197333 0.00156073 0)
(-0.0201869 0.00151919 0)
(-0.020628 0.00147542 0)
(-0.0210558 0.00142949 0)
(-0.0214698 0.00138149 0)
(-0.0218693 0.0013315 0)
(-0.0222538 0.0012796 0)
(-0.0226227 0.00122586 0)
(-0.0229755 0.00117039 0)
(-0.0233117 0.00111325 0)
(-0.0236308 0.00105453 0)
(-0.0239324 0.000994316 0)
(-0.0242161 0.000932696 0)
(-0.0244813 0.000869752 0)
(-0.0247279 0.000805573 0)
(-0.0249553 0.000740244 0)
(-0.0251633 0.000673853 0)
(-0.0253516 0.000606488 0)
(-0.0255199 0.000538239 0)
(-0.025668 0.000469195 0)
(-0.0257956 0.000399446 0)
(-0.0259026 0.000329084 0)
(-0.0259887 0.000258199 0)
(-0.0260539 0.000186885 0)
(-0.0260981 0.000115236 0)
(-0.0261211 4.33445e-05 0)
(-0.0261229 -2.86938e-05 0)
(-0.0261034 -0.000100784 0)
(-0.0260628 -0.000172829 0)
(-0.026001 -0.000244732 0)
(-0.025918 -0.000316396 0)