/*--------------------------------*- C++ -*----------------------------------*\
  =========                 |
  \\      /  F ield         | OpenFOAM: The Open Source CFD Toolbox
   \\    /   O peration     | Website:  https://openfoam.org
    \\  /    A nd           | Version:  7
     \\/     M anipulation  |
\*---------------------------------------------------------------------------*/
FoamFile
{
    version     2.0;
    format      ascii;
    class       volScalarField;
    location    "0.15";
    object      p;
}
// * * * * * * * * * * * * * * * * * * * * * * * * * * * * * * * * * * * * * //

dimensions      [0 2 -2 0 0 0 0];

internalField   nonuniform List<scalar> 
1600
(
6.12024e-07
-0.00118863
-0.00391507
-0.00758241
-0.0115198
-0.0152324
-0.0183631
-0.0206599
-0.0219555
-0.0221502
-0.0211985
-0.0190986
-0.015884
-0.0116174
-0.00638597
-0.000297397
0.00652344
0.0139373
0.0217932
0.0299301
0.0381803
0.0463713
0.0543291
0.061881
0.0688594
0.0751062
0.0804768
0.0848453
0.0881103
0.0902005
0.0910809
0.09076
0.0892981
0.0868161
0.083507
0.0796494
0.075623
0.0719358
0.0692546
0.0681402
0.00118735
-2.06289e-06
-0.00221498
-0.00506097
-0.00809752
-0.01096
-0.0133644
-0.0150978
-0.0160103
-0.0160062
-0.0150354
-0.0130865
-0.0101804
-0.00636507
-0.00171171
0.00368918
0.00973051
0.0162913
0.0232395
0.0304339
0.0377265
0.0449659
0.0519988
0.0586744
0.0648468
0.0703795
0.0751491
0.0790502
0.082
0.0839433
0.0848583
0.0847617
0.0837154
0.0818323
0.0792827
0.0763001
0.0731861
0.0703161
0.0681367
0.0670278
0.00392567
0.00220107
-4.19122e-05
-0.00259642
-0.0052197
-0.00764246
-0.00964135
-0.0110449
-0.0117278
-0.0116064
-0.0106348
-0.00879977
-0.00611667
-0.00262527
0.00161361
0.00652108
0.0120027
0.0179512
0.0242483
0.0307674
0.0373758
0.043937
0.0503134
0.0563692
0.0619741
0.067006
0.0713557
0.0749304
0.0776586
0.0794936
0.0804188
0.0804518
0.0796491
0.0781093
0.0759765
0.0734411
0.0707427
0.0681628
0.0659595
0.0643444
0.00768137
0.00507488
0.00243861
-0.000185326
-0.00273499
-0.00501098
-0.00683926
-0.00808817
-0.00865952
-0.00848663
-0.00753292
-0.00578903
-0.00326978
-1.13336e-05
0.00393133
0.00848695
0.01357
0.0190828
0.0249177
0.0309588
0.0370846
0.0431697
0.0490875
0.0547129
0.0599258
0.064614
0.0686765
0.0720278
0.0746015
0.076354
0.0772684
0.0773579
0.0766691
0.0752834
0.0733176
0.0709233
0.0682926
0.0656403
0.0630536
0.0605888
0.0118611
0.00822816
0.00502539
0.00215031
-0.000501735
-0.0027872
-0.00457372
-0.00576665
-0.00629488
-0.00611023
-0.00518775
-0.00352453
-0.00113766
0.00193762
0.00564983
0.00993301
0.0147082
0.0198854
0.0253654
0.031041
0.0367995
0.0425242
0.048097
0.0534011
0.0583238
0.0627591
0.0666116
0.0697995
0.0722583
0.0739441
0.0748366
0.0749419
0.0742943
0.0729574
0.0710218
0.0686041
0.0658576
0.0629456
0.0597974
0.056333
0.0160396
0.0113373
0.00747548
0.00423162
0.00135504
-0.00105335
-0.00289486
-0.00410751
-0.00464541
-0.00447856
-0.00359476
-0.00199907
0.000287395
0.00322845
0.00677389
0.010861
0.0154155
0.0203533
0.0255814
0.0309993
0.0365009
0.0419762
0.0473132
0.0524009
0.0571311
0.0614018
0.0651198
0.0682043
0.0705901
0.0722301
0.0730983
0.0731917
0.0725317
0.0711642
0.0691562
0.0665944
0.0636024
0.0603055
0.0564963
0.0519818
0.0199088
0.0141417
0.00957417
0.00588562
0.00269991
8.65731e-05
-0.00188142
-0.00316978
-0.00375545
-0.00362567
-0.00278075
-0.00123445
0.000986724
0.003844
0.00728695
0.0112544
0.0156752
0.0204689
0.025547
0.0308138
0.0361678
0.0415036
0.0467133
0.0516889
0.0563248
0.0605198
0.0641809
0.0672257
0.0695855
0.0712081
0.0720596
0.0721269
0.0714181
0.0699625
0.0678064
0.0650123
0.0616823
0.0579161
0.0533901
0.0478212
0.0232357
0.016428
0.0111369
0.00695991
0.0034124
0.000541483
-0.00159949
-0.00299951
-0.00365533
-0.00356988
-0.00275569
-0.00123548
0.000958122
0.00378279
0.00718667
0.0111088
0.0154794
0.0202204
0.025246
0.0304635
0.0357746
0.0410764
0.0462631
0.0512278
0.055865
0.0600727
0.0637555
0.0668271
0.0692135
0.0708551
0.0717089
0.0717506
0.0709753
0.0693969
0.0670439
0.0639592
0.0602305
0.055942
0.0506703
0.0440589
0.0258391
0.0180174
0.0119992
0.00731141
0.00337237
0.000213317
-0.00212707
-0.00365719
-0.0043911
-0.004346
-0.00354599
-0.00202266
0.000184936
0.0030302
0.00645891
0.0104092
0.0148114
0.0195885
0.0246561
0.0299233
0.0352931
0.0406638
0.0459296
0.0509834
0.0557177
0.0600277
0.0638136
0.0669836
0.069456
0.0711624
0.0720494
0.0720809
0.0712387
0.0695226
0.0669457
0.0635353
0.0593703
0.0545262
0.0484926
0.0408501
0.0275684
0.0187544
0.0120118
0.00680315
0.00245829
-0.00100308
-0.00355346
-0.00521769
-0.00602511
-0.00600593
-0.00519511
-0.00363298
-0.00136512
0.00155708
0.00507626
0.00912877
0.0136442
0.0185456
0.0237488
0.0291635
0.0346927
0.0402343
0.0456817
0.0509253
0.0558545
0.0603599
0.0643356
0.067682
0.0703086
0.0721362
0.0730998
0.0731506
0.0722573
0.0704059
0.0675959
0.0638422
0.0592186
0.0537977
0.0469893
0.0383175
0.0282911
0.0184976
0.011034
0.00530215
0.000547789
-0.00321789
-0.00597616
-0.00776632
-0.0086315
-0.00861402
-0.00775912
-0.00611569
-0.00373609
-0.000676802
0.00300117
0.00723173
0.0119431
0.0170573
0.0224899
0.0281497
0.0339393
0.0397549
0.0454876
0.0510245
0.0562503
0.0610494
0.065308
0.0689173
0.0717759
0.0737926
0.0748894
0.0750036
0.07409
0.0721214
0.0690845
0.0649833
0.0598901
0.0538776
0.0462797
0.0365671
0.0278815
0.0171119
0.00892924
0.0026759
-0.00248418
-0.00654675
-0.00950037
-0.0113977
-0.0122948
-0.0122454
-0.011305
-0.00953082
-0.00698231
-0.0037213
0.000187167
0.00467412
0.00966574
0.0150827
0.0208393
0.0268433
0.0329955
0.0391901
0.0453147
0.0512522
0.0568813
0.0620787
0.0667215
0.0706899
0.0738699
0.0761565
0.0774569
0.0776933
0.0768056
0.0747526
0.0715084
0.0670675
0.0615015
0.0548863
0.0464799
0.0357
0.0262143
0.0144622
0.00555948
-0.00121108
-0.00676756
-0.0111119
-0.0142393
-0.0162154
-0.0171089
-0.016985
-0.0159093
-0.0139478
-0.011167
-0.00763461
-0.00341988
0.00140494
0.00676367
0.0125752
0.0187524
0.0252012
0.0318206
0.0385018
0.0451288
0.051579
0.0577243
0.0634326
0.0685704
0.0730051
0.0766085
0.0792598
0.0808494
0.0812826
0.0804825
0.0783928
0.0749744
0.0702117
0.0641768
0.0569497
0.04771
0.0358211
0.0231587
0.0104086
0.00078159
-0.00650049
-0.0124395
-0.0170437
-0.0203149
-0.0223321
-0.023177
-0.0229267
-0.0216573
-0.0194441
-0.016361
-0.0124818
-0.00788045
-0.00263258
0.00318311
0.00948357
0.01618
0.0231768
0.0303706
0.0376496
0.0448937
0.0519745
0.058756
0.0650966
0.0708507
0.0758716
0.0800146
0.083141
0.0851222
0.0858437
0.0852099
0.0831472
0.0796012
0.0745452
0.0680518
0.060205
0.0501016
0.0370475
0.018574
0.00480206
-0.00555681
-0.0133435
-0.0196469
-0.0244822
-0.0278587
-0.0298695
-0.0306108
-0.0301722
-0.0286414
-0.0261035
-0.0226407
-0.018333
-0.0132594
-0.00749907
-0.00113319
0.00575336
0.0130704
0.0207207
0.028599
0.0365907
0.0445714
0.0524066
0.0599524
0.0670565
0.0735601
0.0793007
0.0841153
0.0878447
0.0903383
0.0914589
0.0910889
0.0891341
0.0855223
0.0802134
0.0732791
0.0648067
0.0538036
0.0395141
0.0123067
-0.00251938
-0.0136208
-0.0219038
-0.0285486
-0.0335787
-0.0370124
-0.0389588
-0.03953
-0.0388301
-0.0369595
-0.0340144
-0.0300859
-0.0252609
-0.0196236
-0.0132567
-0.00624376
0.00132904
0.00937045
0.0177825
0.0264583
0.0352811
0.0441225
0.0528424
0.0612886
0.0692976
0.0766966
0.0833057
0.0889413
0.093421
0.0965687
0.0982209
0.0982335
0.0964878
0.0928896
0.0873818
0.0800329
0.0709323
0.0589888
0.04338
0.0041866
-0.0117345
-0.0235923
-0.0323611
-0.0393185
-0.0444981
-0.0479295
-0.0497406
-0.0500619
-0.0490144
-0.0467133
-0.0432672
-0.0387773
-0.0333381
-0.027039
-0.0199663
-0.0122054
-0.00384329
0.00502875
0.0143127
0.0239015
0.0336769
0.0435075
0.0532482
0.0627389
0.071805
0.0802586
0.0879011
0.0945262
0.0999251
0.103892
0.106233
0.106773
0.105361
0.101877
0.0962409
0.0885152
0.0787884
0.0658602
0.0488352
-0.00597631
-0.0230429
-0.0356738
-0.0449149
-0.0521482
-0.0574205
-0.0607759
-0.0623649
-0.0623402
-0.0608429
-0.0580056
-0.0539514
-0.0487928
-0.0426329
-0.0355665
-0.0276832
-0.0190695
-0.00981221
-1.50539e-06
0.0102661
0.0208848
0.0317364
0.0426882
0.0535912
0.0642781
0.0745636
0.0842448
0.0931028
0.100907
0.107418
0.112397
0.115613
0.116852
0.115927
0.112683
0.107011
0.0989612
0.0886178
0.0746578
0.0561063
-0.0183958
-0.03667
-0.0500938
-0.0597889
-0.067251
-0.072544
-0.0757313
-0.0769912
-0.0765039
-0.0744346
-0.070937
-0.0661513
-0.0602031
-0.0532048
-0.0452572
-0.0364523
-0.026877
-0.0166165
-0.00575798
0.00560542
0.0173711
0.0294234
0.0416303
0.0538407
0.065882
0.0775591
0.0886541
0.0989275
0.108121
0.115964
0.122178
0.126488
0.128634
0.128385
0.125539
0.119949
0.111647
0.100707
0.0856673
0.0654651
-0.0333149
-0.0528732
-0.0671132
-0.077237
-0.0848661
-0.0900875
-0.0929902
-0.0937879
-0.0926947
-0.0899061
-0.0856013
-0.0799409
-0.0730659
-0.0650988
-0.0561461
-0.0463022
-0.0356526
-0.0242792
-0.0122639
0.000306215
0.0133346
0.0267108
0.0403065
0.0539712
0.0675296
0.0807786
0.0934864
0.105393
0.116211
0.125634
0.133339
0.139001
0.142304
0.142959
0.140708
0.135353
0.126897
0.115396
0.0992294
0.0772373
-0.0510121
-0.0719502
-0.0870333
-0.0975502
-0.105264
-0.110294
-0.112763
-0.112931
-0.111055
-0.107367
-0.10208
-0.0953778
-0.0874189
-0.0783372
-0.0682452
-0.0572377
-0.0453978
-0.0328011
-0.0195216
-0.00563706
0.00876563
0.0235851
0.0387002
0.0539653
0.0692053
0.0842124
0.098743
0.112517
0.125219
0.136501
0.145993
0.153309
0.158067
0.159907
0.158497
0.153574
0.145097
0.133091
0.115752
0.0918142
-0.0718118
-0.0942509
-0.110208
-0.121067
-0.128755
-0.133434
-0.135277
-0.134601
-0.131721
-0.126916
-0.120435
-0.112494
-0.103271
-0.0929116
-0.0815337
-0.0692315
-0.0560824
-0.042153
-0.0275056
-0.0122045
0.00367718
0.0200519
0.0368106
0.0538171
0.0709015
0.0878554
0.104427
0.120319
0.135187
0.148641
0.160257
0.169581
0.176152
0.179519
0.179261
0.175023
0.166702
0.154277
0.135728
0.109667
-0.0960978
-0.120193
-0.137058
-0.148184
-0.155694
-0.15981
-0.160774
-0.158983
-0.154819
-0.148626
-0.140698
-0.131286
-0.120591
-0.108772
-0.0959488
-0.0822139
-0.0676354
-0.0522668
-0.0361542
-0.0193437
-0.00188907
0.0161413
0.0346566
0.053536
0.072621
0.0917086
0.110544
0.128817
0.146156
0.162131
0.176256
0.188001
0.196811
0.202127
0.203408
0.200183
0.192259
0.179541
0.159753
0.131365
-0.124333
-0.150287
-0.168096
-0.179378
-0.186497
-0.189764
-0.189516
-0.186255
-0.180458
-0.172541
-0.162859
-0.151703
-0.139297
-0.125813
-0.111374
-0.0960626
-0.0799354
-0.0630271
-0.0453621
-0.0269624
-0.00785623
0.0119139
0.032282
0.0531504
0.0743798
0.0957803
0.117102
0.138028
0.158164
0.177041
0.194111
0.208759
0.220318
0.228099
0.23141
0.229625
0.222422
0.209595
0.188554
0.157605
-0.157091
-0.185165
-0.203952
-0.215225
-0.221651
-0.223677
-0.221775
-0.216585
-0.208709
-0.198656
-0.18685
-0.173627
-0.159238
-0.143864
-0.127625
-0.110592
-0.0928011
-0.0742627
-0.0549727
-0.0349223
-0.0141068
0.00746439
0.0297588
0.0527101
0.0762078
0.100085
0.124108
0.14796
0.171236
0.193432
0.213938
0.232046
0.246966
0.257847
0.26381
0.264023
0.257981
0.245314
0.223032
0.189242
-0.195095
-0.225638
-0.245424
-0.25643
-0.261733
-0.261978
-0.257827
-0.250115
-0.239596
-0.226898
-0.212525
-0.19686
-0.180181
-0.162671
-0.144442
-0.125543
-0.105983
-0.0857398
-0.0647729
-0.0430345
-0.0204794
0.00292509
0.0271886
0.0522868
0.0781487
0.104643
0.131564
0.158612
0.185381
0.211342
0.235831
0.258046
0.277055
0.291821
0.301227
0.304174
0.299896
0.287778
0.264311
0.227343
-0.239293
-0.27276
-0.293532
-0.303872
-0.307427
-0.305138
-0.297945
-0.286936
-0.273065
-0.2571
-0.239633
-0.221099
-0.201789
-0.181884
-0.161473
-0.140574
-0.119157
-0.0971583
-0.0744907
-0.0510591
-0.0267686
-0.00153565
0.0247015
0.0519712
0.0802552
0.109472
0.139461
0.169957
0.200572
0.230771
0.259847
0.286908
0.310876
0.330495
0.344359
0.351017
0.349342
0.338347
0.313822
0.273262
-0.290952
-0.32794
-0.349609
-0.358655
-0.359543
-0.35367
-0.342365
-0.327057
-0.308946
-0.288964
-0.267794
-0.245909
-0.223606
-0.201042
-0.178268
-0.155256
-0.131924
-0.108152
-0.0837978
-0.0587081
-0.0327298
-0.00571889
0.0224488
0.0518662
0.0825812
0.11458
0.147765
0.18193
0.216732
0.251654
0.285972
0.318723
0.34868
0.37435
0.393977
0.405656
0.407759
0.398744
0.373417
0.328753
-0.351829
-0.393114
-0.415428
-0.42217
-0.419032
-0.408097
-0.391247
-0.37035
-0.346907
-0.322019
-0.296454
-0.270701
-0.245035
-0.219563
-0.194275
-0.169076
-0.143813
-0.118297
-0.092319
-0.0656574
-0.0380913
-0.00940736
0.0205908
0.0520725
0.0851666
0.119944
0.156396
0.194403
0.233699
0.273827
0.314084
0.35347
0.390631
0.423827
0.450901
0.469372
0.476925
0.471193
0.445549
0.396149
-0.424448
-0.470998
-0.49337
-0.496172
-0.486978
-0.468906
-0.444597
-0.416476
-0.386376
-0.355563
-0.324851
-0.294703
-0.265326
-0.236742
-0.208843
-0.181441
-0.154294
-0.127127
-0.0996499
-0.0715643
-0.0425729
-0.012385
0.0192769
0.0526693
0.0880162
0.125493
0.165205
0.207153
0.251192
0.296977
0.343886
0.390943
0.43672
0.479252
0.515944
0.543615
0.559027
0.558595
0.533547
0.47866
-0.512574
-0.565508
-0.586672
-0.582851
-0.564554
-0.536436
-0.502146
-0.464763
-0.426455
-0.388594
-0.351965
-0.316933
-0.283568
-0.251749
-0.221233
-0.191704
-0.162804
-0.134159
-0.105384
-0.0760956
-0.0459139
-0.0144644
0.0186181
0.0536861
0.0910715
0.131073
0.173936
0.21982
0.268756
0.320575
0.374824
0.430648
0.486644
0.540701
0.589799
0.629954
0.656729
0.664776
0.642048
0.580884
-0.622077
-0.682413
-0.699738
-0.684857
-0.652889
-0.610685
-0.563147
-0.514043
-0.465789
-0.419727
-0.376478
-0.336186
-0.298691
-0.263657
-0.23065
-0.199189
-0.16878
-0.138929
-0.109148
-0.0789634
-0.0479076
-0.0155205
0.0186544
0.0550707
0.0941778
0.136413
0.182189
0.231864
0.2857
0.343795
0.405975
0.471653
0.53962
0.607787
0.672826
0.729928
0.773194
0.794805
0.777685
0.709735
-0.762573
-0.830391
-0.838504
-0.805221
-0.752773
-0.690966
-0.626079
-0.56243
-0.502426
-0.447119
-0.396741
-0.351039
-0.309497
-0.271472
-0.236283
-0.203246
-0.171706
-0.141038
-0.110648
-0.0799658
-0.0484402
-0.0155267
0.0193204
0.0566563
0.0970513
0.141093
0.18938
0.24251
0.301038
0.365424
0.435919
0.512401
0.594122
0.679325
0.764679
0.844728
0.911985
0.955358
0.950176
0.8762
-0.950749
-1.02271
-1.0107
-0.946918
-0.864016
-0.775309
-0.688187
-0.607011
-0.533642
-0.468392
-0.410765
-0.359878
-0.314703
-0.274196
-0.237368
-0.203303
-0.171169
-0.140205
-0.109711
-0.0790283
-0.0475278
-0.014589
0.0204147
0.0581329
0.099253
0.144514
0.194714
0.250715
0.313427
0.383768
0.46258
0.550466
0.647512
0.752806
0.863635
0.974482
1.07657
1.15496
1.17406
1.0989
-1.21711
-1.27966
-1.22546
-1.1115
-0.984037
-0.859344
-0.744733
-0.643413
-0.555728
-0.480558
-0.416227
-0.360945
-0.313011
-0.270893
-0.233253
-0.198928
-0.166909
-0.136307
-0.106326
-0.0762366
-0.0453445
-0.0129698
0.0215791
0.0590301
0.100173
0.145886
0.197163
0.255142
0.32112
0.396562
0.483063
0.582245
0.695512
0.823557
0.965365
1.11671
1.26883
1.40346
1.47112
1.41119
-1.61766
-1.63091
-1.49149
-1.29668
-1.10587
-0.934988
-0.788301
-0.665539
-0.56398
-0.480138
-0.410638
-0.352511
-0.303259
-0.26082
-0.223501
-0.189909
-0.158879
-0.129423
-0.100675
-0.0718545
-0.0422299
-0.0110849
0.022312
0.0587411
0.0990665
0.144277
0.195535
0.254232
0.322051
0.401042
0.493673
0.602858
0.731866
0.883978
1.06155
1.26422
1.48649
1.71006
1.87237
1.87271
-2.25442
-2.11583
-1.81355
-1.4944
-1.2174
-0.990503
-0.809411
-0.666454
-0.553629
-0.464018
-0.392072
-0.333474
-0.284902
-0.2438
-0.208178
-0.176469
-0.147407
-0.119946
-0.0931907
-0.0663462
-0.0386732
-0.0094508
0.0220606
0.056658
0.0952393
0.138856
0.188783
0.246601
0.31432
0.394527
0.490585
0.60687
0.748998
0.923947
1.13977
1.4042
1.72093
2.07937
2.41782
2.58908
-3.35589
-2.78315
-2.17267
-1.67583
-1.29256
-1.00573
-0.79415
-0.63728
-0.51934
-0.429186
-0.358985
-0.303193
-0.257845
-0.220061
-0.187699
-0.159127
-0.133064
-0.108472
-0.0844782
-0.0603159
-0.0352765
-0.00867076
0.0202108
0.0521382
0.0879898
0.128812
0.175901
0.230915
0.296033
0.374201
0.469479
0.587568
0.736543
0.927902
1.17797
1.50834
1.94098
2.49107
3.15794
3.79442
-5.52064
-3.66078
-2.43092
-1.71416
-1.24178
-0.921814
-0.704875
-0.553983
-0.445511
-0.36523
-0.304208
-0.25659
-0.218419
-0.186932
-0.160134
-0.136534
-0.114979
-0.0945419
-0.0744489
-0.0540218
-0.0326362
-0.00968444
0.0154595
0.0434772
0.0751496
0.111414
0.153444
0.20276
0.261409
0.33223
0.419306
0.5287
0.669699
0.857086
1.11542
1.48391
2.01597
2.80539
4.12341
6.09138
-9.20659
-4.51953
-2.3062
-1.42118
-0.958938
-0.682913
-0.512267
-0.400604
-0.322943
-0.266447
-0.223924
-0.190944
-0.164598
-0.142877
-0.124325
-0.107845
-0.0925779
-0.0778251
-0.0629973
-0.0475735
-0.0310712
-0.0130195
0.00706624
0.0297117
0.0555153
0.0851901
0.11962
0.159944
0.207681
0.264944
0.334791
0.42189
0.533786
0.683767
0.897463
1.22412
1.75391
2.73325
5.06141
9.86892
)
;

boundaryField
{
    movingWall
    {
        type            zeroGradient;
    }
    fixedWalls
    {
        type            zeroGradient;
    }
    frontAndBack
    {
        type            empty;
    }
}


// ************************************************************************* //
