/*--------------------------------*- C++ -*----------------------------------*\
  =========                 |
  \\      /  F ield         | OpenFOAM: The Open Source CFD Toolbox
   \\    /   O peration     | Website:  https://openfoam.org
    \\  /    A nd           | Version:  7
     \\/     M anipulation  |
\*---------------------------------------------------------------------------*/
FoamFile
{
    version     2.0;
    format      ascii;
    class       volVectorField;
    location    "0.15";
    object      U;
}
// * * * * * * * * * * * * * * * * * * * * * * * * * * * * * * * * * * * * * //

dimensions      [0 1 -1 0 0 0 0];

internalField   nonuniform List<vector> 
1600
(
(6.05015e-05 -6.03026e-05 0)
(0.000155791 -5.69537e-05 0)
(0.000156629 -6.97737e-06 0)
(6.47548e-06 5.23936e-05 0)
(-0.000303062 0.000107824 0)
(-0.000755641 0.000154603 0)
(-0.00132684 0.00019137 0)
(-0.00198972 0.000218166 0)
(-0.00271712 0.000235564 0)
(-0.00348279 0.000244309 0)
(-0.00426203 0.000245192 0)
(-0.00503201 0.000238995 0)
(-0.00577191 0.000226479 0)
(-0.00646299 0.000208378 0)
(-0.00708866 0.0001854 0)
(-0.00763443 0.000158233 0)
(-0.008088 0.000127557 0)
(-0.00843926 9.40519e-05 0)
(-0.00868027 5.8408e-05 0)
(-0.00880542 2.13295e-05 0)
(-0.00881141 -1.64493e-05 0)
(-0.00869741 -5.41613e-05 0)
(-0.00846506 -9.10066e-05 0)
(-0.00811869 -0.000126149 0)
(-0.00766527 -0.000158716 0)
(-0.00711458 -0.000187812 0)
(-0.00647914 -0.000212526 0)
(-0.00577429 -0.000231946 0)
(-0.00501804 -0.000245171 0)
(-0.00423094 -0.000251335 0)
(-0.00343589 -0.000249627 0)
(-0.00265778 -0.000239309 0)
(-0.0019231 -0.000219744 0)
(-0.00125931 -0.000190453 0)
(-0.000693936 -0.000151236 0)
(-0.000253188 -0.000102512 0)
(4.04604e-05 -4.61641e-05 0)
(0.000173891 1.25852e-05 0)
(0.000160034 6.00634e-05 0)
(6.01564e-05 5.992e-05 0)
(5.85956e-05 -0.000156489 0)
(7.24173e-05 -6.9138e-05 0)
(-0.000178287 0.000182216 0)
(-0.000771713 0.000476318 0)
(-0.00172232 0.00075991 0)
(-0.00300359 0.00100788 0)
(-0.00456706 0.00120894 0)
(-0.00635342 0.00135917 0)
(-0.00829901 0.00145851 0)
(-0.0103397 0.00150882 0)
(-0.0124134 0.00151309 0)
(-0.0144611 0.00147487 0)
(-0.0164286 0.00139802 0)
(-0.0182663 0.0012866 0)
(-0.01993 0.00114472 0)
(-0.0213809 0.00097658 0)
(-0.022586 0.000786436 0)
(-0.0235182 0.000578612 0)
(-0.0241565 0.000357534 0)
(-0.024486 0.000127753 0)
(-0.0244981 -0.000106024 0)
(-0.0241909 -0.000338918 0)
(-0.0235696 -0.000565879 0)
(-0.0226459 -0.000781695 0)
(-0.0214391 -0.00098103 0)
(-0.0199755 -0.00115847 0)
(-0.0182888 -0.00130863 0)
(-0.0164194 -0.0014262 0)
(-0.014415 -0.00150615 0)
(-0.0123289 -0.00154382 0)
(-0.0102203 -0.00153512 0)
(-0.00815234 -0.00147678 0)
(-0.00619105 -0.00136664 0)
(-0.00440308 -0.00120413 0)
(-0.00285277 -0.000991163 0)
(-0.00159776 -0.000733769 0)
(-0.000682472 -0.000445482 0)
(-0.000127016 -0.000153418 0)
(9.17137e-05 8.80877e-05 0)
(6.16168e-05 0.000160421 0)
(1.14339e-05 -0.000162334 0)
(-0.000171643 0.000178438 0)
(-0.000802761 0.000812859 0)
(-0.00192797 0.00153408 0)
(-0.00354812 0.00223529 0)
(-0.00562733 0.0028571 0)
(-0.00810091 0.00336797 0)
(-0.0108875 0.00375353 0)
(-0.0138977 0.00400963 0)
(-0.0170397 0.00413821 0)
(-0.0202229 0.00414495 0)
(-0.0233606 0.00403783 0)
(-0.0263717 0.00382625 0)
(-0.0291817 0.00352052 0)
(-0.0317239 0.00313153 0)
(-0.0339397 0.00267057 0)
(-0.0357791 0.00214926 0)
(-0.0372007 0.00157954 0)
(-0.0381728 0.000973662 0)
(-0.0386728 0.000344279 0)
(-0.0386881 -0.000295568 0)
(-0.0382163 -0.000932405 0)
(-0.0372652 -0.00155235 0)
(-0.0358534 -0.00214116 0)
(-0.0340102 -0.00268437 0)
(-0.0317758 -0.00316742 0)
(-0.029201 -0.00357593 0)
(-0.0263472 -0.00389599 0)
(-0.0232853 -0.00411452 0)
(-0.0200952 -0.00421978 0)
(-0.0168641 -0.0042019 0)
(-0.0136848 -0.00405362 0)
(-0.010653 -0.00377126 0)
(-0.00786395 -0.00335606 0)
(-0.00540808 -0.00281645 0)
(-0.00336474 -0.00217175 0)
(-0.00179352 -0.00145852 0)
(-0.000722315 -0.00074045 0)
(-0.000138791 -0.000126583 0)
(1.76124e-05 0.000179642 0)
(-4.53172e-05 -2.18085e-05 0)
(-0.000463549 0.000767047 0)
(-0.00153275 0.00193852 0)
(-0.00323631 0.00322163 0)
(-0.00554517 0.00446102 0)
(-0.00840844 0.00556198 0)
(-0.0117453 0.00646959 0)
(-0.0154559 0.00715579 0)
(-0.0194307 0.00760996 0)
(-0.0235565 0.00783281 0)
(-0.0277207 0.00783244 0)
(-0.0318146 0.00762186 0)
(-0.0357359 0.00721729 0)
(-0.0393905 0.00663712 0)
(-0.0426934 0.00590118 0)
(-0.0455697 0.00503034 0)
(-0.0479557 0.00404632 0)
(-0.0497985 0.00297155 0)
(-0.0510575 0.00182918 0)
(-0.0517041 0.000643071 0)
(-0.0517223 -0.000562148 0)
(-0.0511092 -0.0017611 0)
(-0.0498751 -0.00292772 0)
(-0.048044 -0.00403536 0)
(-0.0456534 -0.00505708 0)
(-0.0427548 -0.00596591 0)
(-0.0394131 -0.00673538 0)
(-0.035706 -0.00734007 0)
(-0.0317234 -0.00775638 0)
(-0.027566 -0.00796348 0)
(-0.0233434 -0.00794434 0)
(-0.0191713 -0.00768719 0)
(-0.0151687 -0.0071873 0)
(-0.0114532 -0.00644945 0)
(-0.00813578 -0.00549149 0)
(-0.00531449 -0.00434982 0)
(-0.0030646 -0.00308787 0)
(-0.00142792 -0.00180771 0)
(-0.0004195 -0.000669004 0)
(-3.66509e-05 5.94986e-05 0)
(-0.000100281 0.000278258 0)
(-0.000759796 0.00172655 0)
(-0.00228577 0.00358631 0)
(-0.00458562 0.00554709 0)
(-0.00758997 0.00741656 0)
(-0.0112269 0.0090698 0)
(-0.0153969 0.01043 0)
(-0.019982 0.0114552 0)
(-0.0248548 0.0121275 0)
(-0.0298842 0.0124459 0)
(-0.0349395 0.0124206 0)
(-0.0398946 0.0120701 0)
(-0.0446302 0.0114182 0)
(-0.0490361 0.0104927 0)
(-0.0530129 0.00932382 0)
(-0.0564729 0.00794399 0)
(-0.0593407 0.00638703 0)
(-0.0615548 0.00468807 0)
(-0.063067 0.00288345 0)
(-0.0638439 0.0010107 0)
(-0.0638667 -0.000891476 0)
(-0.063132 -0.00278326 0)
(-0.0616521 -0.00462383 0)
(-0.0594551 -0.00637159 0)
(-0.0565852 -0.00798455 0)
(-0.0531027 -0.0094209 0)
(-0.0490836 -0.0106397 0)
(-0.0446187 -0.011602 0)
(-0.0398132 -0.0122719 0)
(-0.0347843 -0.0126178 0)
(-0.0296595 -0.0126147 0)
(-0.0245734 -0.0122459 0)
(-0.019664 -0.0115058 0)
(-0.0150681 -0.0104035 0)
(-0.0109154 -0.00896737 0)
(-0.0073226 -0.00725158 0)
(-0.00438361 -0.00534558 0)
(-0.00216048 -0.00338554 0)
(-0.000706202 -0.00157153 0)
(-8.94843e-05 -0.000214613 0)
(-0.000150422 0.000731457 0)
(-0.00104398 0.00305771 0)
(-0.0030243 0.00576354 0)
(-0.00592035 0.00851787 0)
(-0.00961727 0.011103 0)
(-0.0140174 0.0133707 0)
(-0.0189994 0.0152263 0)
(-0.0244261 0.0166154 0)
(-0.0301526 0.0175139 0)
(-0.0360314 0.0179192 0)
(-0.0419164 0.0178445 0)
(-0.0476665 0.017314 0)
(-0.0531485 0.0163602 0)
(-0.0582395 0.0150211 0)
(-0.0628281 0.013339 0)
(-0.0668163 0.0113591 0)
(-0.0701199 0.00912901 0)
(-0.0726697 0.00669843 0)
(-0.074412 0.00411873 0)
(-0.0753092 0.00144303 0)
(-0.0753402 -0.0012739 0)
(-0.0745011 -0.00397577 0)
(-0.0728053 -0.00660494 0)
(-0.0702841 -0.00910278 0)
(-0.0669867 -0.0114102 0)
(-0.0629801 -0.0134686 0)
(-0.058349 -0.0152206 0)
(-0.0531949 -0.0166119 0)
(-0.0476347 -0.0175924 0)
(-0.0417995 -0.0181189 0)
(-0.0358318 -0.0181571 0)
(-0.0298822 -0.0176845 0)
(-0.0241057 -0.0166944 0)
(-0.018657 -0.0151997 0)
(-0.0136846 -0.0132387 0)
(-0.00932544 -0.0108821 0)
(-0.00569564 -0.0082424 0)
(-0.00288246 -0.00548384 0)
(-0.000982175 -0.00283668 0)
(-0.000137675 -0.000637038 0)
(-0.000195642 0.0013275 0)
(-0.00131178 0.00474917 0)
(-0.00373458 0.00846264 0)
(-0.00721743 0.0121284 0)
(-0.0115984 0.0155132 0)
(-0.0167508 0.0184527 0)
(-0.0225292 0.0208389 0)
(-0.0287752 0.0226085 0)
(-0.035326 0.023733 0)
(-0.0420182 0.0242097 0)
(-0.0486912 0.0240556 0)
(-0.055191 0.0233021 0)
(-0.0613726 0.0219911 0)
(-0.0671023 0.0201721 0)
(-0.0722592 0.0179005 0)
(-0.0767368 0.0152357 0)
(-0.080444 0.0122404 0)
(-0.0833056 0.00898023 0)
(-0.0852633 0.00552304 0)
(-0.0862759 0.00193905 0)
(-0.0863205 -0.00169939 0)
(-0.0853923 -0.00531795 0)
(-0.0835053 -0.00884057 0)
(-0.080693 -0.0121899 0)
(-0.0770079 -0.0152883 0)
(-0.0725221 -0.0180583 0)
(-0.067327 -0.0204248 0)
(-0.0615321 -0.0223163 0)
(-0.0552644 -0.0236672 0)
(-0.0486663 -0.0244208 0)
(-0.0418934 -0.0245323 0)
(-0.0351109 -0.0239722 0)
(-0.0284901 -0.0227312 0)
(-0.0222036 -0.0208248 0)
(-0.0164197 -0.0182996 0)
(-0.011298 -0.01524 0)
(-0.00697981 -0.0117775 0)
(-0.00358105 -0.0080985 0)
(-0.00124329 -0.0044552 0)
(-0.000181104 -0.0011981 0)
(-0.00023688 0.00205671 0)
(-0.00156441 0.00678648 0)
(-0.00441562 0.0116703 0)
(-0.00847277 0.0163674 0)
(-0.0135272 0.0206363 0)
(-0.0194216 0.024303 0)
(-0.0259842 0.0272514 0)
(-0.0330341 0.029413 0)
(-0.0403895 0.0307578 0)
(-0.0478709 0.0312854 0)
(-0.0553041 0.0310183 0)
(-0.0625228 0.0299963 0)
(-0.0693718 0.0282722 0)
(-0.075708 0.0259084 0)
(-0.081403 0.0229742 0)
(-0.0863435 0.0195445 0)
(-0.0904327 0.0156983 0)
(-0.0935906 0.0115181 0)
(-0.0957552 0.00708941 0)
(-0.0968826 0.00250055 0)
(-0.0969478 -0.0021574 0)
(-0.095945 -0.00679093 0)
(-0.0938883 -0.0113044 0)
(-0.090812 -0.0156005 0)
(-0.0867709 -0.0195815 0)
(-0.0818406 -0.02315 0)
(-0.0761171 -0.0262114 0)
(-0.0697164 -0.0286753 0)
(-0.0627736 -0.0304592 0)
(-0.055441 -0.0314911 0)
(-0.047886 -0.0317137 0)
(-0.0402878 -0.0310888 0)
(-0.032834 -0.0296027 0)
(-0.0257157 -0.0272709 0)
(-0.0191229 -0.0241457 0)
(-0.0132398 -0.0203219 0)
(-0.0082355 -0.0159458 0)
(-0.00425705 -0.011221 0)
(-0.0014914 -0.00641547 0)
(-0.000220788 -0.00188899 0)
(-0.000275268 0.00291136 0)
(-0.00180524 0.00915637 0)
(-0.00507236 0.0153731 0)
(-0.00969212 0.0212232 0)
(-0.0154101 0.0264619 0)
(-0.0220377 0.0309113 0)
(-0.0293753 0.0344519 0)
(-0.0372181 0.0370144 0)
(-0.0453647 0.0385706 0)
(-0.053619 0.0391251 0)
(-0.0617931 0.0387084 0)
(-0.0697094 0.0373707 0)
(-0.077203 0.0351771 0)
(-0.0841233 0.0322042 0)
(-0.0903352 0.0285367 0)
(-0.09572 0.0242659 0)
(-0.100177 0.019488 0)
(-0.103621 0.0143032 0)
(-0.105989 0.00881545 0)
(-0.107234 0.00313195 0)
(-0.107328 -0.00263682 0)
(-0.106265 -0.00837739 0)
(-0.104058 -0.0139737 0)
(-0.100742 -0.0193076 0)
(-0.096372 -0.0242601 0)
(-0.0910255 -0.0287127 0)
(-0.0848019 -0.0325497 0)
(-0.0778219 -0.0356606 0)
(-0.0702273 -0.0379436 0)
(-0.062179 -0.0393095 0)
(-0.0538556 -0.0396865 0)
(-0.04545 -0.0390252 0)
(-0.0371665 -0.0373042 0)
(-0.0292158 -0.0345368 0)
(-0.0218113 -0.0307771 0)
(-0.015164 -0.0261273 0)
(-0.00947302 -0.0207441 0)
(-0.00491792 -0.0148442 0)
(-0.00173078 -0.00870816 0)
(-0.000258025 -0.00270319 0)
(-0.000311871 0.003886 0)
(-0.00203815 0.0118487 0)
(-0.00571213 0.0195603 0)
(-0.0108857 0.0266859 0)
(-0.0172597 0.0329816 0)
(-0.0246139 0.0382698 0)
(-0.0327198 0.0424322 0)
(-0.041348 0.0454029 0)
(-0.0502761 0.0471593 0)
(-0.0592913 0.0477144 0)
(-0.0681919 0.0471092 0)
(-0.0767895 0.0454068 0)
(-0.0849106 0.0426868 0)
(-0.0923977 0.0390411 0)
(-0.0991103 0.0345715 0)
(-0.104926 0.0293864 0)
(-0.109739 0.0236 0)
(-0.113465 0.017331 0)
(-0.116035 0.0107021 0)
(-0.117402 0.00383979 0)
(-0.117535 -0.00312562 0)
(-0.116427 -0.0100603 0)
(-0.11409 -0.0168273 0)
(-0.110557 -0.023287 0)
(-0.105883 -0.0292984 0)
(-0.100146 -0.0347206 0)
(-0.0934468 -0.0394155 0)
(-0.08591 -0.0432505 0)
(-0.0776821 -0.0461029 0)
(-0.0689319 -0.0478636 0)
(-0.0598485 -0.0484435 0)
(-0.0506384 -0.0477788 0)
(-0.0415231 -0.0458376 0)
(-0.0327344 -0.0426269 0)
(-0.0245104 -0.0381993 0)
(-0.0170912 -0.0326602 0)
(-0.010708 -0.0261735 0)
(-0.00557397 -0.0189658 0)
(-0.00196649 -0.0113284 0)
(-0.000294077 -0.00363706 0)
(-0.000347584 0.0049774 0)
(-0.00226692 0.014857 0)
(-0.00634279 0.0242247 0)
(-0.0120653 0.0327492 0)
(-0.0190912 0.0401899 0)
(-0.0271679 0.0463732 0)
(-0.0360376 0.0511864 0)
(-0.0454451 0.054571 0)
(-0.0551469 0.0565144 0)
(-0.0649128 0.0570415 0)
(-0.0745275 0.0562072 0)
(-0.0837921 0.0540899 0)
(-0.0925253 0.0507857 0)
(-0.100564 0.0464044 0)
(-0.107763 0.0410653 0)
(-0.113997 0.0348956 0)
(-0.119159 0.0280277 0)
(-0.123161 0.0205994 0)
(-0.125934 0.0127522 0)
(-0.127428 0.00463219 0)
(-0.127613 -0.00361065 0)
(-0.126476 -0.0118221 0)
(-0.124029 -0.019844 0)
(-0.120303 -0.027515 0)
(-0.11535 -0.0346714 0)
(-0.109249 -0.041149 0)
(-0.102099 -0.046786 0)
(-0.0940276 -0.0514259 0)
(-0.0851843 -0.0549223 0)
(-0.0757447 -0.0571439 0)
(-0.0659077 -0.0579809 0)
(-0.0558935 -0.0573514 0)
(-0.0459413 -0.0552089 0)
(-0.036305 -0.0515502 0)
(-0.0272493 -0.0464224 0)
(-0.0190453 -0.0399299 0)
(-0.0119581 -0.0322408 0)
(-0.00623647 -0.0235892 0)
(-0.00220364 -0.0142766 0)
(-0.000330082 -0.0046898 0)
(-0.000383157 0.0061843 0)
(-0.002495 0.0181788 0)
(-0.0069719 0.0293635 0)
(-0.0132426 0.0394104 0)
(-0.0209195 0.0480841 0)
(-0.0297173 0.0552183 0)
(-0.0393479 0.0607099 0)
(-0.0495298 0.0645124 0)
(-0.0599973 0.0666273 0)
(-0.0705031 0.0670954 0)
(-0.0808184 0.065989 0)
(-0.0907344 0.063405 0)
(-0.100063 0.0594587 0)
(-0.108636 0.0542791 0)
(-0.116306 0.0480052 0)
(-0.122945 0.0407831 0)
(-0.128446 0.0327648 0)
(-0.13272 0.0241067 0)
(-0.135697 0.0149696 0)
(-0.137325 0.00551833 0)
(-0.137572 -0.00407743 0)
(-0.136425 -0.0136435 0)
(-0.133891 -0.0230007 0)
(-0.129998 -0.0319659 0)
(-0.124796 -0.0403523 0)
(-0.118359 -0.0479717 0)
(-0.110787 -0.054637 0)
(-0.102206 -0.0601661 0)
(-0.0927677 -0.0643863 0)
(-0.0826532 -0.067141 0)
(-0.0720703 -0.0682956 0)
(-0.0612525 -0.067746 0)
(-0.0504571 -0.0654269 0)
(-0.0399612 -0.0613197 0)
(-0.0300577 -0.0554614 0)
(-0.0210507 -0.0479517 0)
(-0.0132415 -0.0389594 0)
(-0.00691667 -0.0287247 0)
(-0.00244712 -0.017559 0)
(-0.000367056 -0.00586333 0)
(-0.000419214 0.00750719 0)
(-0.0027254 0.021815 0)
(-0.00760644 0.034978 0)
(-0.0144286 0.0466707 0)
(-0.022759 0.0566646 0)
(-0.0322785 0.0648039 0)
(-0.042668 0.0709992 0)
(-0.0536184 0.0752205 0)
(-0.0648421 0.077488 0)
(-0.0760742 0.0778629 0)
(-0.087073 0.0764389 0)
(-0.0976207 0.0733346 0)
(-0.107523 0.0686874 0)
(-0.116609 0.0626476 0)
(-0.12473 0.0553752 0)
(-0.131758 0.0470366 0)
(-0.137585 0.0378032 0)
(-0.142124 0.0278504 0)
(-0.145303 0.0173575 0)
(-0.147071 0.00650787 0)
(-0.147395 -0.00451016 0)
(-0.146257 -0.015503 0)
(-0.143661 -0.0262713 0)
(-0.139632 -0.0366103 0)
(-0.134214 -0.04631 0)
(-0.127477 -0.0551576 0)
(-0.119517 -0.0629396 0)
(-0.110457 -0.069446 0)
(-0.100451 -0.0744755 0)
(-0.0896813 -0.077842 0)
(-0.0783645 -0.0793823 0)
(-0.0667466 -0.0789654 0)
(-0.0551029 -0.0765011 0)
(-0.0437343 -0.0719507 0)
(-0.032964 -0.0653357 0)
(-0.0231311 -0.0567466 0)
(-0.0145759 -0.0463496 0)
(-0.0076254 -0.034389 0)
(-0.00270151 -0.021187 0)
(-0.000405908 -0.0071621 0)
(-0.000456288 0.00894805 0)
(-0.00296083 0.0257698 0)
(-0.00825266 0.0410732 0)
(-0.0156332 0.0545347 0)
(-0.0246225 0.0659342 0)
(-0.0348659 0.0751298 0)
(-0.0460118 0.0820502 0)
(-0.0577232 0.0866867 0)
(-0.0696898 0.0890834 0)
(-0.0816295 0.0893266 0)
(-0.0932884 0.0875357 0)
(-0.104441 0.0838553 0)
(-0.114888 0.0784473 0)
(-0.124458 0.0714861 0)
(-0.133003 0.063154 0)
(-0.140395 0.0536386 0)
(-0.14653 0.0431309 0)
(-0.151321 0.0318249 0)
(-0.1547 0.0199177 0)
(-0.156613 0.00761023 0)
(-0.157025 -0.00489179 0)
(-0.155918 -0.0173766 0)
(-0.153291 -0.0296257 0)
(-0.149161 -0.0414133 0)
(-0.143568 -0.0525069 0)
(-0.136574 -0.0626684 0)
(-0.12827 -0.071657 0)
(-0.118773 -0.0792328 0)
(-0.108234 -0.0851628 0)
(-0.0968385 -0.0892277 0)
(-0.0848076 -0.091231 0)
(-0.0723987 -0.0910086 0)
(-0.059905 -0.0884401 0)
(-0.0476521 -0.0834597 0)
(-0.0359943 -0.0760679 0)
(-0.0253088 -0.0663405 0)
(-0.015978 -0.0544375 0)
(-0.00837292 -0.0406054 0)
(-0.00297112 -0.0251773 0)
(-0.000447473 -0.00859288 0)
(-0.000494851 0.0105102 0)
(-0.00320373 0.0300505 0)
(-0.00891635 0.0476578 0)
(-0.0168656 0.0630099 0)
(-0.0265213 0.0758975 0)
(-0.0374913 0.086196 0)
(-0.0493899 0.093857 0)
(-0.061851 0.0988987 0)
(-0.0745414 0.101395 0)
(-0.0871624 0.101462 0)
(-0.0994489 0.0992504 0)
(-0.111169 0.0949347 0)
(-0.122122 0.088705 0)
(-0.132136 0.080762 0)
(-0.141066 0.071312 0)
(-0.14879 0.0605643 0)
(-0.155206 0.0487296 0)
(-0.160231 0.03602 0)
(-0.163799 0.0226491 0)
(-0.165859 0.00883379 0)
(-0.166374 -0.00520429 0)
(-0.165321 -0.0192371 0)
(-0.162696 -0.0330284 0)
(-0.158509 -0.046333 0)
(-0.15279 -0.0588964 0)
(-0.145594 -0.0704556 0)
(-0.137 -0.0807413 0)
(-0.12712 -0.0894821 0)
(-0.116098 -0.0964102 0)
(-0.104117 -0.101269 0)
(-0.0914029 -0.103823 0)
(-0.0782214 -0.103869 0)
(-0.0648826 -0.101249 0)
(-0.0517369 -0.0958627 0)
(-0.0391717 -0.0876826 0)
(-0.0276043 -0.0767639 0)
(-0.0174635 -0.0632553 0)
(-0.00916898 -0.0474031 0)
(-0.00326005 -0.0295515 0)
(-0.000492544 -0.0101646 0)
(-0.000535355 0.0121982 0)
(-0.00345646 0.034667 0)
(-0.00960302 0.0547434 0)
(-0.0181342 0.0721066 0)
(-0.0284657 0.0865602 0)
(-0.0401648 0.0980014 0)
(-0.0528094 0.10641 0)
(-0.0660032 0.111838 0)
(-0.0793902 0.114395 0)
(-0.0926555 0.114234 0)
(-0.105525 0.111542 0)
(-0.117762 0.106528 0)
(-0.129166 0.0994146 0)
(-0.139571 0.0904304 0)
(-0.148835 0.0798078 0)
(-0.156844 0.0677783 0)
(-0.163503 0.0545722 0)
(-0.168735 0.0404184 0)
(-0.172477 0.0255457 0)
(-0.174681 0.0101848 0)
(-0.175309 -0.00542907 0)
(-0.174337 -0.0210539 0)
(-0.171753 -0.0364382 0)
(-0.167558 -0.0513191 0)
(-0.161774 -0.0654215 0)
(-0.154442 -0.0784581 0)
(-0.14563 -0.0901309 0)
(-0.135436 -0.100135 0)
(-0.123997 -0.108165 0)
(-0.11149 -0.113923 0)
(-0.0981379 -0.117128 0)
(-0.084215 -0.11753 0)
(-0.070046 -0.114926 0)
(-0.0560056 -0.109172 0)
(-0.0425152 -0.100205 0)
(-0.030036 -0.08805 0)
(-0.0190471 -0.07284 0)
(-0.0100229 -0.0548171 0)
(-0.00357229 -0.0343361 0)
(-0.000541899 -0.0118884 0)
(-0.00057827 0.0140177 0)
(-0.00372145 0.039632 0)
(-0.0103183 0.0623448 0)
(-0.0194476 0.0818371 0)
(-0.0304654 0.0979284 0)
(-0.0428944 0.110543 0)
(-0.0562739 0.119696 0)
(-0.0701757 0.12548 0)
(-0.0842209 0.128047 0)
(-0.0980799 0.127596 0)
(-0.111471 0.124356 0)
(-0.124157 0.118576 0)
(-0.135941 0.110514 0)
(-0.146664 0.100431 0)
(-0.156193 0.0885851 0)
(-0.164426 0.075232 0)
(-0.171275 0.0606202 0)
(-0.176674 0.044994 0)
(-0.180567 0.0285954 0)
(-0.182907 0.0116663 0)
(-0.183658 -0.0055476 0)
(-0.182793 -0.0227934 0)
(-0.180293 -0.0398072 0)
(-0.176151 -0.0563113 0)
(-0.170373 -0.0720123 0)
(-0.162988 -0.0865995 0)
(-0.154046 -0.0997467 0)
(-0.143629 -0.111115 0)
(-0.13186 -0.120357 0)
(-0.118904 -0.127129 0)
(-0.104981 -0.131099 0)
(-0.0903651 -0.131962 0)
(-0.0753948 -0.129459 0)
(-0.0604677 -0.123395 0)
(-0.0460403 -0.113657 0)
(-0.0326203 -0.100234 0)
(-0.0207427 -0.0832326 0)
(-0.010944 -0.0628874 0)
(-0.00391187 -0.0395619 0)
(-0.000596343 -0.0137773 0)
(-0.000624131 0.0159759 0)
(-0.00400147 0.0449609 0)
(-0.0110685 0.0704798 0)
(-0.0208148 0.0922156 0)
(-0.0325301 0.110008 0)
(-0.0456877 0.123814 0)
(-0.0597842 0.133692 0)
(-0.0743588 0.139785 0)
(-0.0890094 0.142299 0)
(-0.103394 0.141484 0)
(-0.117226 0.137619 0)
(-0.130271 0.130998 0)
(-0.142341 0.121921 0)
(-0.153287 0.110682 0)
(-0.162992 0.0975695 0)
(-0.171366 0.0828601 0)
(-0.178338 0.0668207 0)
(-0.183851 0.0497094 0)
(-0.187857 0.031778 0)
(-0.190318 0.0132766 0)
(-0.191198 -0.0055423 0)
(-0.190468 -0.0244187 0)
(-0.188101 -0.0430804 0)
(-0.184079 -0.0612385 0)
(-0.178394 -0.078584 0)
(-0.171055 -0.0947854 0)
(-0.162092 -0.109489 0)
(-0.151567 -0.122321 0)
(-0.13958 -0.132891 0)
(-0.126281 -0.140803 0)
(-0.111876 -0.145668 0)
(-0.0966398 -0.147117 0)
(-0.0809164 -0.144825 0)
(-0.065125 -0.138529 0)
(-0.0497575 -0.128057 0)
(-0.0353715 -0.113349 0)
(-0.0225639 -0.0944773 0)
(-0.0119415 -0.0716589 0)
(-0.00428301 -0.0452643 0)
(-0.000656744 -0.0158466 0)
(-0.000673603 0.0180814 0)
(-0.00429985 0.0506726 0)
(-0.011861 0.0791697 0)
(-0.0222467 0.103258 0)
(-0.034671 0.122802 0)
(-0.0485514 0.137801 0)
(-0.0633386 0.148368 0)
(-0.0785367 0.154705 0)
(-0.0937218 0.157082 0)
(-0.108541 0.155812 0)
(-0.122708 0.151233 0)
(-0.135996 0.143691 0)
(-0.14823 0.133529 0)
(-0.159279 0.121081 0)
(-0.169045 0.106664 0)
(-0.177457 0.0905773 0)
(-0.184461 0.0731039 0)
(-0.190016 0.0545128 0)
(-0.194088 0.0350627 0)
(-0.196645 0.0150076 0)
(-0.197655 -0.0053976 0)
(-0.197086 -0.0258908 0)
(-0.194905 -0.046196 0)
(-0.191082 -0.0660177 0)
(-0.18559 -0.0850357 0)
(-0.178416 -0.102901 0)
(-0.169567 -0.119234 0)
(-0.159074 -0.133626 0)
(-0.147012 -0.145643 0)
(-0.133506 -0.154833 0)
(-0.118743 -0.160741 0)
(-0.102987 -0.162923 0)
(-0.0865835 -0.160976 0)
(-0.06997 -0.154557 0)
(-0.0536728 -0.143416 0)
(-0.0383023 -0.12743 0)
(-0.024524 -0.10662 0)
(-0.0130253 -0.0811809 0)
(-0.00469031 -0.0514833 0)
(-0.000724084 -0.0181139 0)
(-0.000727555 0.0203448 0)
(-0.00462094 0.0567901 0)
(-0.0127055 0.0884396 0)
(-0.0237565 0.114982 0)
(-0.0369012 0.136313 0)
(-0.0514936 0.152486 0)
(-0.0669331 0.163678 0)
(-0.0826878 0.170168 0)
(-0.098313 0.172303 0)
(-0.113449 0.170469 0)
(-0.127815 0.165073 0)
(-0.141198 0.15652 0)
(-0.153443 0.145203 0)
(-0.164443 0.131496 0)
(-0.174126 0.115746 0)
(-0.182444 0.0982751 0)
(-0.189367 0.0793795 0)
(-0.194875 0.0593361 0)
(-0.198947 0.0384063 0)
(-0.201563 0.0168432 0)
(-0.202697 -0.00510129 0)
(-0.202315 -0.0271685 0)
(-0.200377 -0.0490847 0)
(-0.196839 -0.0705534 0)
(-0.191656 -0.0912485 0)
(-0.184789 -0.110808 0)
(-0.176212 -0.128831 0)
(-0.165926 -0.144874 0)
(-0.153967 -0.158459 0)
(-0.140428 -0.169073 0)
(-0.125467 -0.176188 0)
(-0.109328 -0.179278 0)
(-0.092351 -0.177843 0)
(-0.0749841 -0.171442 0)
(-0.0577863 -0.159732 0)
(-0.0414233 -0.142501 0)
(-0.0266367 -0.119708 0)
(-0.0142062 -0.0915071 0)
(-0.00513907 -0.058264 0)
(-0.000799526 -0.0205994 0)
(-0.000787175 0.0227791 0)
(-0.00497051 0.0633417 0)
(-0.0136145 0.09832 0)
(-0.0253617 0.127407 0)
(-0.0392377 0.15054 0)
(-0.0545233 0.167838 0)
(-0.0705615 0.179562 0)
(-0.0867829 0.186084 0)
(-0.102725 0.187843 0)
(-0.118026 0.185313 0)
(-0.132419 0.17898 0)
(-0.14571 0.169318 0)
(-0.157776 0.156773 0)
(-0.168539 0.141762 0)
(-0.177959 0.124663 0)
(-0.186022 0.105818 0)
(-0.192725 0.0855338 0)
(-0.198071 0.0640918 0)
(-0.202061 0.0417508 0)
(-0.204687 0.0187573 0)
(-0.20593 -0.00464609 0)
(-0.205758 -0.0282105 0)
(-0.204123 -0.0516712 0)
(-0.200967 -0.0747379 0)
(-0.196224 -0.0970853 0)
(-0.189825 -0.118344 0)
(-0.18171 -0.138097 0)
(-0.171837 -0.155871 0)
(-0.160201 -0.17114 0)
(-0.146848 -0.183333 0)
(-0.131895 -0.191841 0)
(-0.115556 -0.196041 0)
(-0.0981523 -0.195321 0)
(-0.0801354 -0.189124 0)
(-0.0620918 -0.176985 0)
(-0.0447438 -0.158583 0)
(-0.0289166 -0.133787 0)
(-0.0154967 -0.102695 0)
(-0.0056356 -0.0656571 0)
(-0.000884502 -0.0233262 0)
(-0.000854106 0.025401 0)
(-0.00535647 0.0703628 0)
(-0.0146051 0.108848 0)
(-0.0270852 0.140556 0)
(-0.0417023 0.165477 0)
(-0.057652 0.183815 0)
(-0.0742148 0.195938 0)
(-0.0907836 0.202331 0)
(-0.106882 0.203546 0)
(-0.122156 0.200162 0)
(-0.136357 0.192755 0)
(-0.149328 0.181875 0)
(-0.160979 0.16803 0)
(-0.171276 0.151678 0)
(-0.180219 0.133228 0)
(-0.187832 0.11304 0)
(-0.194146 0.0914277 0)
(-0.199194 0.0686713 0)
(-0.202998 0.0450215 0)
(-0.205569 0.0207117 0)
(-0.206897 -0.00403131 0)
(-0.206951 -0.0289762 0)
(-0.205679 -0.053875 0)
(-0.20301 -0.0784517 0)
(-0.198852 -0.10239 0)
(-0.193106 -0.125321 0)
(-0.185672 -0.146817 0)
(-0.176459 -0.166382 0)
(-0.165408 -0.183448 0)
(-0.15251 -0.197378 0)
(-0.137827 -0.20748 0)
(-0.121525 -0.213022 0)
(-0.103894 -0.213265 0)
(-0.0853748 -0.207506 0)
(-0.0665747 -0.195132 0)
(-0.0482711 -0.175681 0)
(-0.0313804 -0.148901 0)
(-0.0169118 -0.114808 0)
(-0.0061878 -0.0737198 0)
(-0.000980847 -0.0263213 0)
(-0.000930667 0.028232 0)
(-0.00578976 0.0778985 0)
(-0.0157002 0.120068 0)
(-0.0289579 0.154452 0)
(-0.0443236 0.181109 0)
(-0.0608933 0.200356 0)
(-0.0778793 0.212694 0)
(-0.0946384 0.21875 0)
(-0.110688 0.219213 0)
(-0.12569 0.214786 0)
(-0.139431 0.20615 0)
(-0.151797 0.193937 0)
(-0.162751 0.178719 0)
(-0.172308 0.161 0)
(-0.180519 0.141217 0)
(-0.187451 0.119743 0)
(-0.193177 0.0968939 0)
(-0.197763 0.0729425 0)
(-0.201258 0.0481251 0)
(-0.203692 0.022655 0)
(-0.205068 -0.00326467 0)
(-0.20536 -0.0294279 0)
(-0.204511 -0.0556123 0)
(-0.202436 -0.0815649 0)
(-0.199022 -0.106988 0)
(-0.194135 -0.131523 0)
(-0.187629 -0.154743 0)
(-0.179362 -0.176132 0)
(-0.16921 -0.195088 0)
(-0.157093 -0.210914 0)
(-0.143004 -0.222826 0)
(-0.127042 -0.229974 0)
(-0.109447 -0.231473 0)
(-0.0906319 -0.226447 0)
(-0.0712101 -0.214099 0)
(-0.0520106 -0.193782 0)
(-0.0340473 -0.165087 0)
(-0.0184705 -0.127912 0)
(-0.00680587 -0.0825175 0)
(-0.00109099 -0.0296162 0)
(-0.00102016 0.0313001 0)
(-0.00628558 0.0860069 0)
(-0.0169314 0.132039 0)
(-0.0310205 0.169123 0)
(-0.0471375 0.197415 0)
(-0.0642621 0.217377 0)
(-0.0815331 0.229683 0)
(-0.0982755 0.235137 0)
(-0.114011 0.234594 0)
(-0.128436 0.228902 0)
(-0.141385 0.21886 0)
(-0.152807 0.205192 0)
(-0.162726 0.188537 0)
(-0.171222 0.169443 0)
(-0.178402 0.148368 0)
(-0.184388 0.125695 0)
(-0.189296 0.101737 0)
(-0.19323 0.07675 0)
(-0.196271 0.0509494 0)
(-0.19847 0.0245209 0)
(-0.199846 -0.00236391 0)
(-0.200377 -0.029533 0)
(-0.200008 -0.0567984 0)
(-0.198638 -0.0839403 0)
(-0.196134 -0.11069 0)
(-0.192329 -0.136712 0)
(-0.187029 -0.161588 0)
(-0.180031 -0.1848 0)
(-0.171141 -0.205715 0)
(-0.160194 -0.223582 0)
(-0.147096 -0.23753 0)
(-0.131857 -0.246579 0)
(-0.11464 -0.249676 0)
(-0.0958068 -0.245747 0)
(-0.0759586 -0.233765 0)
(-0.0559648 -0.21285 0)
(-0.0369404 -0.182377 0)
(-0.0201969 -0.142078 0)
(-0.00750341 -0.0921258 0)
(-0.00121823 -0.0332488 0)
(-0.00112734 0.0346429 0)
(-0.0068652 0.0947642 0)
(-0.0183413 0.144832 0)
(-0.0333265 0.184598 0)
(-0.0501884 0.214354 0)
(-0.0677715 0.234758 0)
(-0.0851384 0.246707 0)
(-0.101592 0.251226 0)
(-0.116678 0.24937 0)
(-0.130145 0.242156 0)
(-0.1419 0.230516 0)
(-0.151969 0.215273 0)
(-0.160458 0.197129 0)
(-0.16752 0.176672 0)
(-0.173331 0.15438 0)
(-0.17807 0.130634 0)
(-0.181903 0.105734 0)
(-0.184975 0.0799158 0)
(-0.187398 0.0533637 0)
(-0.189248 0.0262284 0)
(-0.19056 -0.00135817 0)
(-0.191324 -0.0292661 0)
(-0.191482 -0.0573513 0)
(-0.190926 -0.0854372 0)
(-0.189504 -0.113296 0)
(-0.187014 -0.140627 0)
(-0.183219 -0.167037 0)
(-0.177851 -0.192018 0)
(-0.170636 -0.214923 0)
(-0.161314 -0.234956 0)
(-0.149683 -0.251161 0)
(-0.135639 -0.262429 0)
(-0.119239 -0.267523 0)
(-0.100759 -0.265131 0)
(-0.08076 -0.253952 0)
(-0.0601315 -0.232808 0)
(-0.0400881 -0.200786 0)
(-0.0221234 -0.157383 0)
(-0.00829907 -0.102634 0)
(-0.00136722 -0.0372655 0)
(-0.00125915 0.0383114 0)
(-0.00755863 0.104271 0)
(-0.0199882 0.158536 0)
(-0.035945 0.200906 0)
(-0.0535279 0.231864 0)
(-0.0714261 0.252333 0)
(-0.0886292 0.263502 0)
(-0.104437 0.266673 0)
(-0.118445 0.263141 0)
(-0.130483 0.254118 0)
(-0.140558 0.240678 0)
(-0.148797 0.223745 0)
(-0.155401 0.204083 0)
(-0.160611 0.182311 0)
(-0.164677 0.158914 0)
(-0.16784 0.134264 0)
(-0.170319 0.108639 0)
(-0.1723 0.0822425 0)
(-0.173927 0.0552211 0)
(-0.175301 0.0276823 0)
(-0.176476 -0.000288629 0)
(-0.177452 -0.028612 0)
(-0.178174 -0.0571958 0)
(-0.178533 -0.085917 0)
(-0.178359 -0.1146 0)
(-0.177424 -0.142995 0)
(-0.175445 -0.170748 0)
(-0.172095 -0.197379 0)
(-0.167013 -0.222248 0)
(-0.159836 -0.244531 0)
(-0.150233 -0.263201 0)
(-0.13796 -0.277019 0)
(-0.12293 -0.284555 0)
(-0.105293 -0.284228 0)
(-0.0855226 -0.274405 0)
(-0.0644996 -0.25353 0)
(-0.0435249 -0.22031 0)
(-0.0242932 -0.17391 0)
(-0.00921898 -0.114148 0)
(-0.00154468 -0.0417245 0)
(-0.00142597 0.0423753 0)
(-0.00840859 0.11466 0)
(-0.0219508 0.173262 0)
(-0.0389633 0.218069 0)
(-0.0572103 0.24984 0)
(-0.0752089 0.269866 0)
(-0.0918895 0.279715 0)
(-0.106582 0.281035 0)
(-0.118969 0.275409 0)
(-0.129003 0.264262 0)
(-0.136821 0.248822 0)
(-0.142678 0.230109 0)
(-0.146886 0.208937 0)
(-0.149784 0.185943 0)
(-0.151702 0.161605 0)
(-0.152943 0.136273 0)
(-0.153778 0.110191 0)
(-0.154431 0.0835207 0)
(-0.155077 0.0563636 0)
(-0.155841 0.0287766 0)
(-0.156794 0.000791754 0)
(-0.15795 -0.0275676 0)
(-0.159261 -0.0562689 0)
(-0.160619 -0.0852511 0)
(-0.161846 -0.114403 0)
(-0.162694 -0.143538 0)
(-0.162844 -0.172362 0)
(-0.161913 -0.200445 0)
(-0.159457 -0.227176 0)
(-0.155002 -0.25173 0)
(-0.148074 -0.273031 0)
(-0.138261 -0.289726 0)
(-0.125289 -0.300187 0)
(-0.109127 -0.30254 0)
(-0.0901056 -0.294758 0)
(-0.0690411 -0.274815 0)
(-0.047292 -0.240911 0)
(-0.0267652 -0.191743 0)
(-0.0103007 -0.126801 0)
(-0.00176066 -0.0467008 0)
(-0.00164365 0.046932 0)
(-0.00947676 0.126109 0)
(-0.0243357 0.189147 0)
(-0.0424874 0.23609 0)
(-0.0612821 0.268114 0)
(-0.079057 0.287018 0)
(-0.0947171 0.294868 0)
(-0.107674 0.293742 0)
(-0.117758 0.285552 0)
(-0.125091 0.27196 0)
(-0.129982 0.254343 0)
(-0.132834 0.233801 0)
(-0.134091 0.211183 0)
(-0.134192 0.187121 0)
(-0.133546 0.162069 0)
(-0.13252 0.136337 0)
(-0.131425 0.110123 0)
(-0.130519 0.0835388 0)
(-0.130005 0.05663 0)
(-0.130025 0.029399 0)
(-0.130668 0.00182 0)
(-0.13196 -0.0261441 0)
(-0.133866 -0.054525 0)
(-0.136284 -0.0833306 0)
(-0.139037 -0.112523 0)
(-0.141871 -0.141992 0)
(-0.144443 -0.171524 0)
(-0.146324 -0.20076 0)
(-0.147 -0.229151 0)
(-0.145886 -0.255905 0)
(-0.142358 -0.279932 0)
(-0.135809 -0.299795 0)
(-0.125736 -0.313681 0)
(-0.11186 -0.319409 0)
(-0.0942894 -0.314503 0)
(-0.0736952 -0.296354 0)
(-0.0514344 -0.262496 0)
(-0.0296195 -0.21097 0)
(-0.0115991 -0.140756 0)
(-0.00203067 -0.0522942 0)
(-0.00193729 0.05212 0)
(-0.0108537 0.138855 0)
(-0.027286 0.206348 0)
(-0.046639 0.25493 0)
(-0.0657583 0.286412 0)
(-0.0828177 0.303303 0)
(-0.0967638 0.30832 0)
(-0.107174 0.30406 0)
(-0.114104 0.292811 0)
(-0.117909 0.276472 0)
(-0.119107 0.256553 0)
(-0.118279 0.234208 0)
(-0.116003 0.210287 0)
(-0.112822 0.185392 0)
(-0.109215 0.159928 0)
(-0.105598 0.134147 0)
(-0.102316 0.108188 0)
(-0.0996499 0.0820989 0)
(-0.0978159 0.0558684 0)
(-0.0969718 0.0294393 0)
(-0.0972169 0.00272663 0)
(-0.098592 -0.0243683 0)
(-0.101077 -0.051943 0)
(-0.104583 -0.0800771 0)
(-0.108947 -0.108812 0)
(-0.113922 -0.138127 0)
(-0.119161 -0.167903 0)
(-0.124211 -0.197879 0)
(-0.128505 -0.227604 0)
(-0.131363 -0.25636 0)
(-0.132015 -0.283094 0)
(-0.129643 -0.306334 0)
(-0.123473 -0.324122 0)
(-0.112907 -0.333978 0)
(-0.0977266 -0.332932 0)
(-0.0783383 -0.317678 0)
(-0.0559928 -0.284885 0)
(-0.0329645 -0.231667 0)
(-0.0131964 -0.156222 0)
(-0.00237954 -0.0586423 0)
(-0.00234804 0.0581396 0)
(-0.0126746 0.153216 0)
(-0.030991 0.225031 0)
(-0.0515395 0.274463 0)
(-0.070574 0.304289 0)
(-0.0861708 0.318018 0)
(-0.0974398 0.319205 0)
(-0.104251 0.311059 0)
(-0.106985 0.296266 0)