/*--------------------------------*- C++ -*----------------------------------*\
  =========                 |
  \\      /  F ield         | OpenFOAM: The Open Source CFD Toolbox
   \\    /   O peration     | Website:  https://openfoam.org
    \\  /    A nd           | Version:  7
     \\/     M anipulation  |
\*---------------------------------------------------------------------------*/
FoamFile
{
    version     2.0;
    format      ascii;
    class       volScalarField;
    location    "0.45";
    object      p;
}
// * * * * * * * * * * * * * * * * * * * * * * * * * * * * * * * * * * * * * //

dimensions      [0 2 -2 0 0 0 0];

internalField   nonuniform List<scalar> 
1600
(
7.49276e-06
-0.00117848
-0.00390845
-0.0075825
-0.0115276
-0.0152481
-0.0183862
-0.0206895
-0.0219904
-0.0221893
-0.0212405
-0.0191419
-0.0159271
-0.0116591
-0.00642504
-0.000332772
0.00649278
0.0139122
0.0217742
0.0299177
0.0381747
0.0463724
0.0543365
0.0618941
0.0688774
0.0751281
0.0805013
0.0848712
0.0881363
0.0902249
0.0911022
0.090777
0.0893093
0.0868205
0.0835037
0.0796382
0.0756043
0.0719106
0.0692252
0.0681094
0.00120134
1.0897e-05
-0.00220564
-0.00505702
-0.00809982
-0.0109688
-0.0133793
-0.0151183
-0.0160356
-0.0160353
-0.0150672
-0.01312
-0.0102143
-0.00639839
-0.00174337
0.00366007
0.00970476
0.0162697
0.0232225
0.0304219
0.0377197
0.0449641
0.0520019
0.0586818
0.0648578
0.0703934
0.0751649
0.0790667
0.0820161
0.0839577
0.0848698
0.0847694
0.0837182
0.0818293
0.0792733
0.0762842
0.073164
0.0702887
0.0681057
0.0669955
0.00394634
0.00221876
-2.82667e-05
-0.00258779
-0.0052167
-0.00764518
-0.00964961
-0.0110583
-0.0117457
-0.0116279
-0.010659
-0.00882582
-0.00614363
-0.00265221
0.00158755
0.00649666
0.0119807
0.0179321
0.0242327
0.0307557
0.0373681
0.0439332
0.0503132
0.0563723
0.0619798
0.0670137
0.0713646
0.0749397
0.0776671
0.0795004
0.0804228
0.0804522
0.079645
0.0781002
0.0759617
0.0734205
0.0707166
0.0681318
0.0659247
0.0643074
0.00771013
0.00509881
0.00245753
-0.000171648
-0.00272693
-0.00500845
-0.00684199
-0.00809579
-0.00867144
-0.00850215
-0.00755127
-0.00580939
-0.00329136
-3.33791e-05
0.00390957
0.00846614
0.0135507
0.0190657
0.0249032
0.0309473
0.0370761
0.0431641
0.0490846
0.0547125
0.0599274
0.0646169
0.06868
0.0720313
0.0746041
0.0763547
0.0772665
0.0773525
0.0766594
0.0752687
0.0732976
0.0708979
0.0682619
0.0656046
0.0630134
0.0605448
0.0118989
0.00825901
0.00505007
0.00216923
-0.000488661
-0.00277974
-0.00457145
-0.00576915
-0.00630167
-0.00612065
-0.00520113
-0.00354014
-0.0011548
0.00191964
0.00563163
0.00991511
0.0146912
0.0198699
0.0253517
0.0310294
0.03679
0.0425168
0.0480917
0.0533976
0.0583216
0.0627577
0.0666103
0.0697978
0.0722555
0.0739395
0.0748294
0.0749311
0.0742793
0.0729375
0.0709967
0.0685736
0.0658218
0.0629044
0.0597509
0.0562807
0.0160865
0.0113751
0.00750583
0.00425552
0.00137276
-0.00104151
-0.0028883
-0.00410569
-0.00464787
-0.00448478
-0.00360409
-0.00201079
0.000273895
0.00321367
0.00675839
0.0108453
0.0154002
0.0203389
0.0255681
0.0309873
0.0364904
0.0419671
0.0473056
0.0523944
0.0571254
0.0613964
0.0651142
0.0681981
0.0705826
0.0722206
0.0730861
0.073176
0.0725118
0.0711395
0.0691261
0.0665588
0.0635612
0.0602586
0.0564429
0.051921
0.0199637
0.0141858
0.00960965
0.00591391
0.00272157
0.000102183
-0.00187124
-0.00316452
-0.00375456
-0.00362856
-0.00278686
-0.0012432
0.000975867
0.00383153
0.0072734
0.0112403
0.0156609
0.0204549
0.0255335
0.0308011
0.036156
0.0414927
0.0467032
0.0516795
0.0563156
0.0605107
0.0641714
0.0672154
0.0695738
0.0711942
0.0720429
0.0721067
0.0713938
0.0699333
0.0677719
0.064972
0.0616359
0.0578634
0.05333
0.047752
0.0232974
0.0164772
0.0111764
0.0069917
0.0034372
0.000559962
-0.00158665
-0.00299168
-0.00365192
-0.00357035
-0.00275956
-0.00124224
0.000948998
0.00377179
0.00717428
0.0110954
0.0154654
0.0202061
0.0252318
0.0304496
0.0357612
0.0410635
0.0462505
0.0512154
0.0558526
0.0600601
0.0637424
0.0668131
0.0691979
0.0708372
0.0716882
0.0717264
0.070947
0.0693638
0.0670054
0.0639147
0.0601795
0.055884
0.0506041
0.0439823
0.0259054
0.0180701
0.0120416
0.00734552
0.00339918
0.000233649
-0.00211249
-0.00364768
-0.0043861
-0.00434502
-0.00354855
-0.0020283
0.000176695
0.00301982
0.00644681
0.0103957
0.0147969
0.0195733
0.0246406
0.0299078
0.0352777
0.0406484
0.0459143
0.050968
0.055702
0.0600117
0.0637971
0.066966
0.0694368
0.0711409
0.0720251
0.0720531
0.071207
0.0694861
0.0669038
0.0634872
0.0593153
0.0544638
0.0484213
0.0407673
0.0276373
0.0188089
0.0120554
0.00683831
0.00248597
-0.000981975
-0.00353813
-0.00520749
-0.00601951
-0.00600444
-0.00519728
-0.00363836
-0.00137335
0.00154641
0.00506356
0.00911438
0.0136285
0.0185289
0.0237315
0.0291457
0.0346747
0.0402161
0.0456633
0.0509067
0.0558357
0.0603406
0.0643157
0.067661
0.070286
0.0721114
0.0730723
0.0731198
0.0722225
0.0703665
0.0675511
0.063791
0.0591604
0.0537318
0.0469139
0.03823
0.0283601
0.0185519
0.0110774
0.00533693
0.000575086
-0.00319717
-0.00596117
-0.00775647
-0.0086263
-0.00861298
-0.00776184
-0.00612178
-0.00374524
-0.000688656
0.00298699
0.0072156
0.0119254
0.0170383
0.02247
0.0281291
0.0339182
0.0397335
0.0454659
0.0510026
0.0562281
0.0610266
0.0652846
0.0688929
0.0717501
0.0737648
0.0748591
0.0749702
0.0740527
0.0720795
0.0690372
0.0649298
0.0598295
0.0538093
0.0462017
0.0364766
0.0279483
0.0171639
0.00897049
0.00270879
-0.0024586
-0.0065276
-0.00948686
-0.0113892
-0.0122909
-0.0122458
-0.0113092
-0.00953854
-0.00699327
-0.00373518
0.000170736
0.00465549
0.00964529
0.0150607
0.0208162
0.0268193
0.0329709
0.039165
0.0452894
0.0512266
0.0568554
0.0620525
0.0666947
0.0706622
0.0738409
0.0761258
0.077424
0.0776575
0.0767661
0.0747087
0.0714593
0.0670123
0.0614394
0.0548165
0.0464004
0.035608
0.0262763
0.01451
0.00559692
-0.00118161
-0.00674507
-0.0110956
-0.0142284
-0.0162094
-0.0171074
-0.0169877
-0.0159159
-0.013958
-0.0111807
-0.00765131
-0.00343933
0.00138307
0.00673977
0.0125496
0.0187254
0.0251733
0.0317919
0.0384727
0.0450994
0.0515494
0.0576945
0.0634027
0.0685401
0.0729741
0.0765764
0.0792263
0.080814
0.0812446
0.0804412
0.0783474
0.0749241
0.0701555
0.0641141
0.0568795
0.0476305
0.0357294
0.0232134
0.0104501
0.000813512
-0.00647596
-0.0124215
-0.0170314
-0.0203078
-0.0223296
-0.0231788
-0.0229326
-0.0216671
-0.0194576
-0.016378
-0.012502
-0.00790358
-0.00265829
0.00315517
0.00945376
0.0161487
0.0231444
0.0303374
0.037616
0.0448599
0.0519405
0.0587221
0.0650628
0.0708168
0.0758373
0.0799796
0.0831048
0.0850844
0.0858038
0.0851671
0.0831007
0.0795502
0.0744888
0.0679893
0.0601354
0.0500232
0.0369576
0.0186192
0.00483548
-0.005532
-0.0133253
-0.0196346
-0.024475
-0.0278563
-0.0298714
-0.0306168
-0.0301821
-0.0286552
-0.026121
-0.0226617
-0.0183573
-0.0132868
-0.00752915
-0.00116565
0.00571891
0.0130343
0.0206835
0.028561
0.0365523
0.0445328
0.0523681
0.0599141
0.0670185
0.0735224
0.079263
0.0840773
0.087806
0.0902983
0.0914173
0.0910449
0.0890869
0.0854712
0.0801575
0.0732175
0.0647387
0.0537275
0.0394274
0.0123403
-0.00249582
-0.0136046
-0.0218933
-0.0285431
-0.0335778
-0.0370156
-0.038966
-0.0395409
-0.0388447
-0.0369779
-0.0340364
-0.0301114
-0.0252899
-0.0196557
-0.0132916
-0.00628109
0.0012896
0.00932935
0.0177401
0.0264152
0.0352376
0.0440791
0.0527992
0.0612458
0.0692554
0.076655
0.0832645
0.0889003
0.0933797
0.0965268
0.0981778
0.0981886
0.0964404
0.0928389
0.087327
0.0799732
0.0708669
0.0589162
0.0432981
0.00420682
-0.0117223
-0.023586
-0.0323593
-0.0393208
-0.0445042
-0.0479391
-0.0497537
-0.0500784
-0.0490344
-0.0467368
-0.0432942
-0.0388078
-0.0333719
-0.027076
-0.0200062
-0.0122478
-0.0038879
0.00498241
0.0142651
0.0238531
0.0336282
0.043459
0.0532002
0.0626916
0.0717586
0.0802132
0.0878565
0.0944823
0.0998815
0.103849
0.106189
0.106727
0.105314
0.101827
0.0961877
0.0884579
0.0787264
0.0657921
0.0487591
-0.00597084
-0.0230432
-0.0356783
-0.0449227
-0.0521591
-0.0574343
-0.0607925
-0.0623844
-0.0623628
-0.0608686
-0.0580345
-0.0539836
-0.0488284
-0.0426717
-0.0356086
-0.0277282
-0.0191171
-0.00986206
-5.31213e-05
0.0102133
0.0208312
0.0316826
0.0426348
0.0535384
0.0642263
0.0745131
0.0841956
0.0930549
0.10086
0.107372
0.112352
0.115567
0.116806
0.11588
0.112635
0.10696
0.098907
0.0885599
0.0745951
0.0560372
-0.0184061
-0.0366835
-0.0501098
-0.0598069
-0.0672709
-0.0725659
-0.0757554
-0.0770176
-0.0765327
-0.0744662
-0.0709715
-0.0661888
-0.0602439
-0.0532488
-0.0453043
-0.0365023
-0.0269297
-0.0166714
-0.00581471
0.00554745
0.0173125
0.0293647
0.0415721
0.0537834
0.065826
0.0775047
0.0886014
0.0988765
0.108072
0.115916
0.122131
0.126442
0.128589
0.128339
0.125491
0.1199
0.111596
0.100654
0.0856108
0.0654039
-0.0333414
-0.0529003
-0.0671409
-0.0772654
-0.0848953
-0.0901178
-0.0930218
-0.0938212
-0.0927299
-0.0899436
-0.0856414
-0.0799838
-0.0731118
-0.0651478
-0.0561982
-0.0463571
-0.0357102
-0.0243389
-0.0123254
0.000243507
0.0132713
0.0266476
0.0402439
0.0539098
0.0674698
0.0807207
0.0934306
0.105339
0.11616
0.125584
0.133291
0.138954
0.142259
0.142914
0.140663
0.135307
0.126851
0.115348
0.0991797
0.0771849
-0.0510549
-0.071991
-0.0870728
-0.0975889
-0.105303
-0.110332
-0.112802
-0.112971
-0.111096
-0.107411
-0.102126
-0.0954257
-0.0874696
-0.0783908
-0.0683017
-0.0572971
-0.0454598
-0.0328652
-0.0195874
-0.00570398
0.00869826
0.0235179
0.0386339
0.0539003
0.0691422
0.0841514
0.0986845
0.112461
0.125165
0.13645
0.145944
0.153262
0.158022
0.159863
0.158454
0.153532
0.145055
0.133049
0.11571
0.091771
-0.0718704
-0.0943049
-0.110259
-0.121115
-0.128802
-0.13348
-0.135323
-0.134648
-0.131768
-0.126964
-0.120486
-0.112547
-0.103326
-0.0929693
-0.0815942
-0.0692947
-0.0561481
-0.0422208
-0.027575
-0.012275
0.00360637
0.0199814
0.0367411
0.0537492
0.0708357
0.087792
0.104367
0.120261
0.135132
0.14859
0.160208
0.169535
0.176108
0.179478
0.179221
0.174984
0.166665
0.154241
0.135694
0.109633
-0.0961712
-0.12026
-0.13712
-0.148242
-0.155749
-0.159864
-0.160827
-0.159035
-0.154872
-0.148679
-0.140753
-0.131343
-0.12065
-0.108833
-0.0960125
-0.0822802
-0.0677041
-0.0523375
-0.0362264
-0.0194169
-0.00196253
0.0160684
0.0345848
0.0534659
0.0725532
0.0916436
0.110482
0.128758
0.146101
0.162079
0.176207
0.187956
0.196768
0.202087
0.203371
0.200149
0.192227
0.179512
0.159726
0.131342
-0.12442
-0.150364
-0.168167
-0.179445
-0.186559
-0.189824
-0.189574
-0.186312
-0.180514
-0.172598
-0.162917
-0.151762
-0.139358
-0.125876
-0.11144
-0.0961311
-0.0800061
-0.0630998
-0.0454363
-0.0270375
-0.00793145
0.0118392
0.0322087
0.053079
0.0743109
0.0957144
0.11704
0.137969
0.158109
0.176989
0.194063
0.208714
0.220278
0.228062
0.231376
0.229595
0.222395
0.209572
0.188535
0.157591
-0.157189
-0.185253
-0.204031
-0.215298
-0.22172
-0.223742
-0.221837
-0.216646
-0.208768
-0.198715
-0.18691
-0.173688
-0.159301
-0.143929
-0.127692
-0.110662
-0.0928729
-0.0743364
-0.0550479
-0.0349982
-0.0141829
0.00738901
0.0296848
0.0526383
0.0761387
0.100019
0.124045
0.147901
0.171182
0.193381
0.213891
0.232004
0.246928
0.257813
0.26378
0.263997
0.25796
0.245297
0.223021
0.189237
-0.195203
-0.225733
-0.24551
-0.256508
-0.261806
-0.262046
-0.257893
-0.250178
-0.239657
-0.226958
-0.212585
-0.196921
-0.180243
-0.162736
-0.144509
-0.125612
-0.106055
-0.0858135
-0.064848
-0.0431104
-0.0205553
0.00284991
0.027115
0.0522154
0.0780802
0.104578
0.131502
0.158554
0.185328
0.211293
0.235786
0.258005
0.277019
0.291789
0.301201
0.304152
0.29988
0.287768
0.264307
0.227347
-0.239407
-0.27286
-0.293622
-0.303954
-0.307503
-0.305209
-0.298011
-0.286999
-0.273126
-0.257159
-0.239693
-0.221158
-0.20185
-0.181948
-0.161538
-0.140642
-0.119228
-0.0972308
-0.0745647
-0.0511339
-0.0268434
-0.0016097
0.0246291
0.0519012
0.0801883
0.109409
0.139401
0.169902
0.200522
0.230725
0.259805
0.286871
0.310843
0.330467
0.344337
0.351
0.349331
0.338342
0.313825
0.273275
-0.29107
-0.328043
-0.349701
-0.358739
-0.35962
-0.35374
-0.342431
-0.327118
-0.309005
-0.289021
-0.26785
-0.245966
-0.223665
-0.201103
-0.178331
-0.155322
-0.131992
-0.108222
-0.0838697
-0.058781
-0.0328027
-0.00579093
0.0223784
0.0517983
0.0825165
0.114519
0.147708
0.181878
0.216684
0.251611
0.285934
0.31869
0.348651
0.374326
0.393959
0.405643
0.407752
0.398745
0.373426
0.328774
-0.351948
-0.393217
-0.415519
-0.422253
-0.419108
-0.408166
-0.39131
-0.370409
-0.346962
-0.322072
-0.296506
-0.270754
-0.24509
-0.21962
-0.194334
-0.169138
-0.143877
-0.118364
-0.0923879
-0.0657273
-0.0381613
-0.0094766
0.0205233
0.0520075
0.0851048
0.119886
0.156342
0.194354
0.233655
0.273788
0.31405
0.35344
0.390606
0.423808
0.450886
0.469363
0.476923
0.471199
0.445564
0.396177
-0.424564
-0.471099
-0.493459
-0.496253
-0.487051
-0.468971
-0.444656
-0.41653
-0.386427
-0.355611
-0.324898
-0.294751
-0.265375
-0.236793
-0.208897
-0.181499
-0.154354
-0.12719
-0.0997149
-0.0716304
-0.0426394
-0.0124509
0.0192127
0.0526076
0.0879578
0.125439
0.165155
0.207108
0.251152
0.296942
0.343856
0.390918
0.4367
0.479237
0.515933
0.543611
0.559029
0.558605
0.533567
0.478693
-0.512685
-0.565604
-0.586757
-0.582926
-0.564622
-0.536496
-0.502199
-0.464811
-0.426499
-0.388635
-0.352005
-0.316973
-0.283611
-0.251795
-0.221282
-0.191756
-0.16286
-0.134217
-0.105444
-0.0761576
-0.0459764
-0.0145265
0.0185575
0.0536279
0.0910167
0.131022
0.17389
0.219779
0.26872
0.320544
0.374799
0.430627
0.486629
0.54069
0.589793
0.629954
0.656735
0.66479
0.642072
0.58092
-0.622179
-0.682501
-0.699816
-0.684926
-0.652949
-0.610737
-0.563192
-0.514084
-0.465825
-0.419761
-0.376511
-0.336219
-0.298727
-0.263696
-0.230692
-0.199235
-0.16883
-0.138982
-0.109204
-0.0790209
-0.0479659
-0.0155786
0.0185975
0.0550162
0.0941265
0.136366
0.182146
0.231826
0.285668
0.343768
0.405954
0.471637
0.539609
0.60778
0.672824
0.729932
0.773204
0.794822
0.777711
0.709774
-0.762664
-0.83047
-0.838573
-0.805282
-0.752825
-0.691011
-0.626117
-0.562462
-0.502454
-0.447145
-0.396766
-0.351065
-0.309525
-0.271504
-0.236318
-0.203286
-0.17175
-0.141086
-0.110698
-0.0800186
-0.0484943
-0.0155809
0.0192672
0.0566051
0.0970032
0.141049
0.189341
0.242475
0.301009
0.365401
0.435901
0.512389
0.594115
0.679322
0.764681
0.844734
0.911997
0.955377
0.950204
0.87624
-0.950828
-1.02277
-1.01076
-0.94697
-0.86406
-0.775344
-0.688216
-0.607034
-0.533661
-0.46841
-0.410782
-0.359896
-0.314723
-0.274221
-0.237396
-0.203336
-0.171207
-0.140247
-0.109756
-0.0790766
-0.0475778
-0.0146397
0.0203646
0.0580845
0.0992074
0.144472
0.194677
0.250683
0.3134
0.383747
0.462565
0.550456
0.647507
0.752806
0.863639
0.97449
1.07658
1.15497
1.17408
1.09894
-1.21718
-1.27971
-1.22551
-1.11154
-0.984072
-0.859371
-0.744753
-0.643427
-0.555738
-0.480567
-0.416236
-0.360956
-0.313024
-0.27091
-0.233275
-0.198955
-0.166941
-0.136343
-0.106367
-0.0762806
-0.0453908
-0.0130173
0.0215315
0.0589837
0.100129
0.145845
0.197127
0.25511
0.321094
0.396542
0.483049
0.582236
0.695508
0.823559
0.965371
1.11672
1.26884
1.40348
1.47115
1.41123
-1.61771
-1.63095
-1.49153
-1.29672
-1.10589
-0.935006
-0.788312
-0.665545
-0.563982
-0.480139
-0.410639
-0.352514
-0.303265
-0.26083
-0.223516
-0.189929
-0.158906
-0.129455
-0.100711
-0.0718947
-0.042273
-0.01113
0.0222662
0.0586958
0.0990229
0.144237
0.195498
0.254199
0.322024
0.40102
0.493657
0.602848
0.731862
0.883979
1.06156
1.26423
1.48651
1.71008
1.8724
1.87275
-2.25446
-2.11587
-1.81359
-1.49442
-1.21742
-0.990513
-0.809415
-0.666453
-0.553624
-0.464012
-0.392066
-0.33347
-0.284901
-0.243803
-0.208187
-0.176483
-0.147428
-0.119973
-0.0932229
-0.0663831
-0.0387139
-0.00949432
0.0220156
0.0566127
0.0951949
0.138814
0.188744
0.246566
0.31429
0.394502
0.490567
0.606857
0.748991
0.923946
1.13978
1.40421
1.72094
2.07939
2.41785
2.58911
-3.35592
-2.78318
-2.1727
-1.67585
-1.29258
-1.00573
-0.794147
-0.637272
-0.519328
-0.429172
-0.358972
-0.303181
-0.257837
-0.220058
-0.187702
-0.159136
-0.133079
-0.108494
-0.0845068
-0.0603502
-0.0353156
-0.00871357
0.0201655
0.0520917
0.0879433
0.128767
0.175859
0.230875
0.295998
0.374171
0.469455
0.58755
0.736532
0.927897
1.17798
1.50834
1.94099
2.49108
3.15796
3.79444
-5.52067
-3.66081
-2.43095
-1.71417
-1.24179
-0.921813
-0.704866
-0.553968
-0.445491
-0.365208
-0.304186
-0.25657
-0.218403
-0.186921
-0.160129
-0.136536
-0.114989
-0.0945597
-0.0744742
-0.0540541
-0.0326746
-0.00972779
0.0154125
0.0434277
0.0750991
0.111364
0.153395
0.202715
0.261367
0.332193
0.419275
0.528675
0.66968
0.857074
1.11541
1.48391
2.01598
2.8054
4.12342
6.0914
-9.20662
-4.51956
-2.30623
-1.42119
-0.958941
-0.682906
-0.512251
-0.40058
-0.322913
-0.266414
-0.223891
-0.190912
-0.16457
-0.142855
-0.124311
-0.10784
-0.0925815
-0.0778382
-0.0630196
-0.0476044
-0.0311099
-0.0130648
0.00701565
0.0296573
0.0554587
0.0851328
0.119564
0.159889
0.20763
0.264897
0.334751
0.421855
0.533758
0.683746
0.89745
1.22411
1.75391
2.73326
5.06142
9.86893
)
;

boundaryField
{
    movingWall
    {
        type            zeroGradient;
    }
    fixedWalls
    {
        type            zeroGradient;
    }
    frontAndBack
    {
        type            empty;
    }
}


// ************************************************************************* //
