/*--------------------------------*- C++ -*----------------------------------*\
  =========                 |
  \\      /  F ield         | OpenFOAM: The Open Source CFD Toolbox
   \\    /   O peration     | Website:  https://openfoam.org
    \\  /    A nd           | Version:  7
     \\/     M anipulation  |
\*---------------------------------------------------------------------------*/
FoamFile
{
    version     2.0;
    format      ascii;
    class       volScalarField;
    location    "0.175";
    object      p;
}
// * * * * * * * * * * * * * * * * * * * * * * * * * * * * * * * * * * * * * //

dimensions      [0 2 -2 0 0 0 0];

internalField   nonuniform List<scalar> 
6400
(
-2.33324e-08
1.17763e-05
-0.000495185
-0.00152759
-0.00296909
-0.00470933
-0.00664819
-0.00869622
-0.0107762
-0.0128226
-0.0147807
-0.0166042
-0.0182548
-0.0197009
-0.0209166
-0.0218812
-0.0225788
-0.0229971
-0.0231274
-0.0229646
-0.022506
-0.0217518
-0.0207043
-0.0193682
-0.01775
-0.0158578
-0.0137016
-0.0112926
-0.00864345
-0.00576801
-0.00268128
0.000600701
0.00406094
0.00768158
0.011444
0.0153288
0.019316
0.023385
0.0275147
0.0316837
0.0358701
0.0400519
0.0442069
0.0483128
0.0523473
0.0562885
0.0601146
0.063804
0.0673359
0.07069
0.073847
0.0767884
0.0794968
0.0819561
0.0841517
0.0860707
0.0877018
0.0890359
0.0900659
0.0907872
0.091198
0.091299
0.0910944
0.0905915
0.0898013
0.0887388
0.0874234
0.0858791
0.0841354
0.0822272
0.0801965
0.0780923
0.0759721
0.0739027
0.0719618
0.0702374
0.0688268
0.0678339
0.0673654
0.0674018
-1.14141e-05
1.18954e-06
-0.000452587
-0.00133552
-0.00254849
-0.00401233
-0.00565116
-0.0073928
-0.00917198
-0.0109315
-0.0126218
-0.0142004
-0.0156313
-0.0168843
-0.0179342
-0.0187607
-0.0193477
-0.0196826
-0.0197564
-0.019563
-0.0190991
-0.0183638
-0.0173587
-0.0160874
-0.0145551
-0.0127691
-0.0107381
-0.00847225
-0.00598299
-0.00328299
-0.000386071
0.00269297
0.00593835
0.00933348
0.012861
0.0165027
0.02024
0.0240535
0.0279236
0.0318302
0.0357528
0.0396707
0.0435632
0.0474094
0.0511886
0.0548802
0.0584639
0.0619198
0.0652285
0.0683713
0.0713303
0.0740884
0.0766299
0.07894
0.0810056
0.0828152
0.0843587
0.0856281
0.0866178
0.0873241
0.0877459
0.0878851
0.0877462
0.0873371
0.086669
0.0857569
0.0846199
0.0832812
0.0817688
0.080116
0.0783615
0.0765505
0.0747342
0.0729711
0.0713264
0.0698713
0.0686791
0.0678243
0.0674005
0.067438
0.000494803
0.000456225
2.32054e-06
-0.000813158
-0.00190295
-0.00320379
-0.00465457
-0.00619524
-0.0077703
-0.00932975
-0.0108293
-0.0122305
-0.0134999
-0.0146092
-0.0155347
-0.0162567
-0.0167595
-0.0170306
-0.017061
-0.0168442
-0.0163765
-0.0156565
-0.0146852
-0.0134653
-0.0120015
-0.0103002
-0.00836908
-0.00621755
-0.0038561
-0.00129649
0.00144844
0.00436485
0.00743798
0.0106523
0.0139913
0.0174381
0.020975
0.0245838
0.0282459
0.0319422
0.0356535
0.0393603
0.0430429
0.0466816
0.050257
0.0537496
0.0571403
0.0604104
0.0635417
0.0665166
0.0693186
0.0719316
0.0743411
0.0765334
0.0784965
0.0802197
0.0816942
0.0829128
0.0838705
0.0845644
0.0849942
0.085162
0.0850727
0.0847344
0.0841583
0.0833588
0.0823543
0.081167
0.0798234
0.0783544
0.0767958
0.0751884
0.0735781
0.0720158
0.0705574
0.069262
0.0681888
0.0673981
0.0669751
0.0669713
0.00152726
0.00134165
0.000817948
-7.3555e-07
-0.00104778
-0.00226977
-0.00361494
-0.00503261
-0.00647527
-0.00789938
-0.00926582
-0.0105399
-0.0116913
-0.0126941
-0.013526
-0.0141687
-0.0146071
-0.0148294
-0.0148265
-0.0145922
-0.0141225
-0.013416
-0.012473
-0.0112959
-0.00988886
-0.00825756
-0.00640924
-0.00435244
-0.00209697
0.000346184
0.00296496
0.00574633
0.00867639
0.0117404
0.0149229
0.0182078
0.0215782
0.0250169
0.0285064
0.0320283
0.0355646
0.0390964
0.0426054
0.0460726
0.0494797
0.0528081
0.0560398
0.0591569
0.0621424
0.0649797
0.0676529
0.0701473
0.0724488
0.074545
0.0764244
0.0780773
0.0794954
0.0806722
0.0816033
0.0822862
0.082721
0.08291
0.0828581
0.0825733
0.0820662
0.0813509
0.0804448
0.0793685
0.0781469
0.0768085
0.0753858
0.0739155
0.0724385
0.0709991
0.0696456
0.0684283
0.0673975
0.0666049
0.0661184
0.0659816
0.00297512
0.00256307
0.00191159
0.00104016
-1.42058e-05
-0.00120679
-0.00249372
-0.00383276
-0.00518368
-0.00650912
-0.00777487
-0.00895025
-0.0100082
-0.0109252
-0.0116809
-0.0122584
-0.0126436
-0.0128255
-0.0127955
-0.0125475
-0.0120777
-0.0113844
-0.0104679
-0.00933018
-0.00797497
-0.00640754
-0.00463453
-0.00266391
-0.000504855
0.00183235
0.00433634
0.00699484
0.00979473
0.0127221
0.0157621
0.0188997
0.0221187
0.0254029
0.0287355
0.0320991
0.0354765
0.0388498
0.0422013
0.0455134
0.0487682
0.0519483
0.0550364
0.0580157
0.0608699
0.0635833
0.0661409
0.0685286
0.0707333
0.0727432
0.0745476
0.0761373
0.0775046
0.0786435
0.07955
0.080222
0.0806595
0.0808651
0.0808435
0.0806022
0.0801516
0.0795047
0.0786777
0.0776899
0.0765641
0.0753261
0.0740053
0.0726344
0.0712492
0.0698883
0.0685928
0.0674052
0.0663684
0.0655262
0.0649197
0.0645711
0.00473603
0.00404747
0.00322525
0.00226076
0.00115774
-4.69497e-05
-0.00131605
-0.00261492
-0.00391002
-0.00516962
-0.00636431
-0.0074673
-0.00845474
-0.00930562
-0.0100018
-0.0105278
-0.010871
-0.0110209
-0.0109699
-0.0107121
-0.0102441
-0.00956413
-0.00867244
-0.00757083
-0.00626275
-0.00475307
-0.00304802
-0.00115504
0.000917207
0.00315902
0.00555968
0.00810761
0.0107904
0.0135947
0.0165066
0.0195117
0.0225947
0.02574
0.0289317
0.0321533
0.0353881
0.0386194
0.0418301
0.0450033
0.0481221
0.0511698
0.0541299
0.0569865
0.0597239
0.0623272
0.0647822
0.0670753
0.0691943
0.0711278
0.0728657
0.0743993
0.0757213
0.0768261
0.0777099
0.0783708
0.078809
0.0790266
0.0790283
0.0788211
0.0784145
0.0778208
0.0770547
0.0761342
0.0750796
0.0739143
0.0726645
0.0713591
0.0700291
0.068708
0.0674302
0.0662311
0.0651477
0.0642166
0.0634474
0.0628361
0.00671931
0.00572619
0.0047036
0.00361455
0.00242896
0.00117726
-0.000108862
-0.00140138
-0.00267276
-0.00389637
-0.00504722
-0.00610231
-0.00704089
-0.00784454
-0.00849716
-0.00898511
-0.00929693
-0.0094234
-0.0093574
-0.00909385
-0.00862953
-0.00796297
-0.0070944
-0.00602559
-0.00475982
-0.00330168
-0.00165704
0.000167007
0.00216228
0.00431958
0.00662875
0.00907878
0.0116578
0.0143533
0.0171519
0.0200399
0.0230026
0.0260254
0.0290927
0.032189
0.0352983
0.0384045
0.0414914
0.0445427
0.0475421
0.0504739
0.0533221
0.0560714
0.0587069
0.0612144
0.06358
0.065791
0.0678355
0.0697026
0.0713827
0.0728675
0.0741498
0.0752244
0.0760876
0.0767375
0.0771741
0.0773995
0.0774177
0.0772353
0.076861
0.0763059
0.0755835
0.0747099
0.0737035
0.0725851
0.0713779
0.0701071
0.0687996
0.0674838
0.0661887
0.0649433
0.0637796
0.0627281
0.0617663
0.0608631
0.0088458
0.0075348
0.0062928
0.00505613
0.00376196
0.00243555
0.00110418
-0.000209921
-0.00148453
-0.00269759
-0.0038281
-0.00485668
-0.00576549
-0.00653864
-0.00716214
-0.00762408
-0.00791439
-0.00802502
-0.00794971
-0.00768404
-0.00722523
-0.00657213
-0.00572511
-0.00468601
-0.00345799
-0.00204551
-0.000454201
0.00130917
0.00323679
0.00531988
0.00754879
0.00991297
0.0124011
0.0150013
0.0177006
0.0204861
0.0233437
0.0262592
0.029218
0.032205
0.0352049
0.0382023
0.0411815
0.0441269
0.047023
0.0498544
0.0526059
0.0552628
0.0578106
0.0602356
0.0625246
0.0646651
0.0666458
0.0684562
0.0700868
0.0715296
0.0727777
0.0738259
0.0746706
0.0753097
0.075743
0.0759723
0.0760011
0.0758352
0.0754826
0.074953
0.0742589
0.0734143
0.0724359
0.0713419
0.0701527
0.0688901
0.0675773
0.0662383
0.0648972
0.0635774
0.062307
0.0611117
0.0599377
0.0587282
0.0110487
0.00941587
0.00794341
0.00654297
0.00512085
0.00369825
0.00229913
0.000940702
-0.00035945
-0.00158333
-0.0027136
-0.00373402
-0.00462965
-0.00538694
-0.00599405
-0.0064407
-0.00671829
-0.00681994
-0.00674034
-0.00647578
-0.00602404
-0.00538435
-0.00455733
-0.00354494
-0.00235035
-0.000977941
0.000566811
0.00227737
0.0041462
0.00616491
0.00832423
0.010614
0.0130235
0.0155411
0.0181547
0.0208516
0.0236184
0.0264415
0.0293068
0.0321997
0.0351057
0.0380097
0.0408967
0.0437516
0.0465595
0.0493054
0.0519748
0.0545532
0.0570269
0.0593823
0.0616067
0.0636881
0.0656152
0.067378
0.0689671
0.0703746
0.0715938
0.0726194
0.0734478
0.0740766
0.0745053
0.0747352
0.0747695
0.0746129
0.0742726
0.0737573
0.0730778
0.0722468
0.0712787
0.0701898
0.0689975
0.0677208
0.0663795
0.0649938
0.0635834
0.0621672
0.0607702
0.0594144
0.0580164
0.0564956
0.0132721
0.0113194
0.00961105
0.00803601
0.00647182
0.00493664
0.00345194
0.00203081
0.000686766
-0.00056577
-0.00171275
-0.00274076
-0.0036375
-0.0043917
-0.00499348
-0.00543424
-0.00570683
-0.00580553
-0.00572602
-0.00546534
-0.00502188
-0.00439535
-0.00358668
-0.00259801
-0.00143259
-9.48181e-05
0.00140991
0.00307523
0.00489387
0.00685767
0.00895768
0.0111842
0.0135267
0.0159742
0.0185149
0.0211367
0.0238266
0.0265715
0.0293577
0.0321713
0.0349981
0.0378236
0.0406333
0.0434126
0.0461468
0.0488217
0.0514229
0.0539366
0.0563491
0.0586473
0.0608189
0.0628519
0.0647355
0.0664596
0.0680151
0.0693939
0.0705896
0.0715966
0.072411
0.0730304
0.0734537
0.0736818
0.0737171
0.0735638
0.0732278
0.0727169
0.0720403
0.0712094
0.0702365
0.069136
0.0679228
0.0666133
0.0652242
0.0637725
0.0622741
0.0607443
0.0592058
0.0576779
0.0560496
0.0542185
0.0154694
0.0132021
0.0112561
0.00949971
0.00778341
0.00612334
0.00453925
0.0030407
0.0016378
0.00034184
-0.000835935
-0.00188483
-0.00279485
-0.00355691
-0.00416287
-0.00460584
-0.00488006
-0.00498097
-0.00490521
-0.00465064
-0.00421631
-0.00360242
-0.00281026
-0.00184223
-0.000701758
0.000606736
0.00207787
0.00370536
0.0054821
0.00740017
0.00945086
0.0116247
0.0139117
0.0163011
0.0187815
0.0213411
0.0239675
0.0266479
0.0293691
0.0321176
0.0348796
0.0376411
0.0403879
0.0431058
0.0457806
0.0483984
0.050945
0.053407
0.055771
0.0580242
0.0601543
0.0621497
0.0639996
0.0656938
0.0672234
0.0685803
0.0697579
0.0707504
0.0715537
0.0721649
0.0725826
0.0728071
0.07284
0.0726848
0.0723465
0.0718315
0.071148
0.0703056
0.0693152
0.068189
0.06694
0.0655819
0.0641291
0.0625956
0.0609945
0.0593378
0.0576469
0.0559392
0.0540782
0.051941
0.0176011
0.0150262
0.0128436
0.0109018
0.00902652
0.00723253
0.00553845
0.00395089
0.00247713
0.00112575
-9.45103e-05
-0.00117534
-0.00210884
-0.00288791
-0.00350614
-0.00395817
-0.00423957
-0.00434693
-0.00427787
-0.00403107
-0.00360624
-0.00300412
-0.00222642
-0.00127583
-0.000155986
0.00112857
0.00257243
0.00416936
0.00591236
0.00779366
0.00980475
0.0119365
0.0141789
0.0165218
0.018954
0.0214641
0.02404
0.0266692
0.029339
0.0320363
0.0347474
0.0374589
0.0401568
0.0428272
0.0454565
0.0480306
0.050536
0.0529592
0.0552871
0.057507
0.0596069
0.0615752
0.0634009
0.0650741
0.0665856
0.0679275
0.0690926
0.0700751
0.0708704
0.0714752
0.0718877
0.0721075
0.0721356
0.0719746
0.0716284
0.0711025
0.0704037
0.0695403
0.0685216
0.0673579
0.0660605
0.064641
0.0631114
0.0614836
0.0597681
0.0579745
0.0561232
0.0542309
0.0521369
0.0496995
0.0196342
0.0167592
0.0143421
0.0122131
0.0101743
0.00823994
0.00642788
0.00474234
0.00318818
0.00177176
0.000499508
-0.000622277
-0.00158771
-0.00239135
-0.0030285
-0.00349521
-0.00378831
-0.00390548
-0.00384532
-0.00360733
-0.0031919
-0.00260032
-0.00183474
-0.000898188
0.000205442
0.00147145
0.00289434
0.00446792
0.00618521
0.00803854
0.0100195
0.0121192
0.014328
0.0166358
0.0190317
0.0215045
0.0240426
0.0266337
0.0292654
0.0319247
0.0345987
0.0372737
0.0399364
0.0425731
0.0451701
0.0477139
0.0501909
0.0525879
0.0548919
0.0570904
0.0591711
0.0611225
0.0629338
0.0645949
0.0660964
0.0674301
0.0685887
0.0695659
0.0703568
0.0709577
0.0713662
0.0715811
0.0716028
0.071433
0.0710747
0.0705324
0.0698116
0.0689192
0.0678633
0.0666525
0.0652964
0.0638048
0.062188
0.0604558
0.0586168
0.0566786
0.0546614
0.0525815
0.0502556
0.0475245
0.0215398
0.0183722
0.0157237
0.013407
0.0112021
0.00912277
0.00718681
0.00539647
0.00375452
0.00226537
0.000933536
-0.000236505
-0.00124061
-0.00207497
-0.0027364
-0.00322223
-0.00353051
-0.00365998
-0.00361019
-0.00338143
-0.00297478
-0.00239209
-0.00163597
-0.000709833
0.000382147
0.00163508
0.0030434
0.00460081
0.00630034
0.00813439
0.0100947
0.0121724
0.0143581
0.0166419
0.0190131
0.0214607
0.0239733
0.026539
0.0291456
0.0317803
0.0344302
0.0370823
0.0397231
0.0423393
0.0449174
0.0474438
0.0499053
0.0522886
0.0545807
0.0567692
0.0588418
0.0607869
0.0625936
0.0642514
0.0657511
0.0670839
0.0682421
0.0692194
0.0700101
0.07061
0.0710162
0.0712268
0.0712415
0.0710611
0.0706877
0.0701246
0.0693765
0.0684489
0.0673486
0.0660829
0.0646597
0.0630875
0.061375
0.0595306
0.057561
0.0554724
0.0532852
0.051016
0.04846
0.0454415
0.0232931
0.0198399
0.0169634
0.0144595
0.0120868
0.00985953
0.00779544
0.00589517
0.00415976
0.00259193
0.0011946
-2.94414e-05
-0.00107754
-0.00194745
-0.00263726
-0.00314557
-0.00347156
-0.00361499
-0.0035763
-0.00335657
-0.00295754
-0.00238165
-0.001632
-0.00071238
0.000372735
0.00161824
0.00301841
0.00456687
0.0062566
0.00808001
0.0100289
0.0120946
0.0142677
0.0165383
0.0188962
0.0213305
0.0238299
0.0263827
0.0289768
0.0315997
0.0342388
0.036881
0.0395132
0.0421221
0.0446942
0.0472162
0.0496748
0.0520567
0.054349
0.056539
0.0586146
0.0605639
0.0623758
0.0640396
0.0655458
0.0668852
0.0680498
0.0690327
0.0698279
0.0704305
0.0708369
0.0710447
0.0710527
0.0708608
0.0704704
0.0698837
0.0691043
0.0681366
0.0669863
0.0656593
0.0641625
0.0625029
0.0606881
0.0587251
0.0566195
0.0543761
0.0520161
0.0495565
0.0467725
0.0434721
0.0248721
0.0211397
0.0180384
0.0153482
0.0128072
0.01043
0.00823477
0.00622081
0.0043877
0.00273672
0.00126937
-1.30192e-05
-0.00110919
-0.00201822
-0.00273941
-0.00327255
-0.00361786
-0.00377609
-0.00374852
-0.00353699
-0.00314391
-0.00257229
-0.00182573
-0.000908432
0.000174841
0.00141874
0.00281734
0.00436413
0.00605204
0.00787345
0.0098202
0.0118836
0.0140544
0.0163229
0.0186788
0.0211114
0.0236095
0.0261617
0.028756
0.0313799
0.034021
0.0366664
0.039303
0.0419175
0.0444967
0.047027
0.0494952
0.0518881
0.0541925
0.0563958
0.0584855
0.0604496
0.0622767
0.063956
0.0654773
0.0668313
0.0680094
0.0690042
0.0698091
0.0704188
0.0708287
0.0710359
0.0710384
0.0708353
0.070427
0.0698148
0.0690014
0.0679901
0.0667855
0.0653925
0.0638169
0.0620647
0.0601423
0.0580558
0.0558097
0.0534083
0.0508733
0.0482229
0.0452126
0.0416349
0.026257
0.0222508
0.0189279
0.0160525
0.0133432
0.0108149
0.00848655
0.00635626
0.00442238
0.002685
0.0011443
-0.000199601
-0.00134677
-0.00229738
-0.00305195
-0.00361133
-0.00397674
-0.00414983
-0.0041327
-0.00392794
-0.00353861
-0.00296828
-0.00222106
-0.00130153
-0.000214807
0.00103351
0.00243726
0.00398979
0.00568393
0.00751202
0.00946589
0.0115368
0.0137157
0.0159927
0.0183577
0.0208002
0.0233091
0.0258728
0.0284796
0.0311173
0.0337732
0.0364346
0.0390885
0.0417216
0.0443207
0.0468721
0.0493626
0.0517788
0.0541074
0.0563357
0.0584508
0.0604406
0.0622933
0.0639977
0.0655433
0.0669202
0.0681194
0.0691328
0.0699534
0.070575
0.0709926
0.0712024
0.0712015
0.0709883
0.0705623
0.069924
0.069075
0.0680178
0.066756
0.0652935
0.0636353
0.0617864
0.0597522
0.0575384
0.0551485
0.0525863
0.0498747
0.0470329
0.0437976
0.0399461
0.0274298
0.0231544
0.0196126
0.0165532
0.0136758
0.0109958
0.00853306
0.00628468
0.00424795
0.0024219
0.000805609
-0.000601959
-0.00180197
-0.00279569
-0.00358472
-0.00417089
-0.00455635
-0.00474363
-0.00473561
-0.00453557
-0.00414725
-0.00357478
-0.00282273
-0.0018961
-0.00080033
0.000458649
0.00187446
0.00344029
0.00514882
0.00699234
0.00896261
0.0110509
0.013248
0.0155443
0.0179296
0.0203935
0.0229249
0.0255123
0.0281441
0.0308079
0.0334914
0.0361817
0.0388658
0.0415305
0.0441622
0.0467476
0.049273
0.0517249
0.0540901
0.0563552
0.0585073
0.0605339
0.0624228
0.0641624
0.0657417
0.0671504
0.0683788
0.0694183
0.0702611
0.0709004
0.0713305
0.0715468
0.0715456
0.0713245
0.0708821
0.070218
0.069333
0.0682288
0.0669079
0.0653736
0.06363
0.0616813
0.0595323
0.057188
0.0546517
0.0519265
0.0490369
0.0460031
0.0425435
0.0384204
0.0283735
0.0238326
0.020074
0.0168318
0.0137867
0.0109549
0.00835704
0.00598951
0.00384864
0.0019325
0.000239254
-0.00123321
-0.00248702
-0.00352449
-0.00434819
-0.00496089
-0.00536563
-0.00556572
-0.00556482
-0.00536691
-0.00497634
-0.0043978
-0.00363634
-0.00269736
-0.00158667
-0.000310507
0.0011245
0.00271134
0.00444259
0.00631039
0.0083064
0.0104219
0.0126476
0.0149738
0.0173906
0.0198873
0.022453
0.0250762
0.0277452
0.0304478
0.0331715
0.0359036
0.0386308
0.0413399
0.0440173
0.0466495
0.0492226
0.0517229
0.0541369
0.056451
0.058652
0.0607268
0.0626629
0.0644483
0.0660713
0.0675211
0.0687874
0.0698609
0.0707332
0.0713968
0.0718451
0.0720727
0.0720752
0.0718492
0.0713926
0.0707042
0.0697838
0.0686324
0.0672517
0.0656443
0.0638134
0.0617627
0.0594966
0.0570196
0.0543345
0.0514445
0.0483753
0.0451487
0.0414648
0.0370711
0.0290721
0.0242683
0.0202948
0.0168707
0.0136583
0.0106748
0.00794156
0.00545434
0.00320866
0.00120178
-0.000569039
-0.0021068
-0.00341458
-0.00449566
-0.00535349
-0.00599172
-0.00641421
-0.00662508
-0.0066287
-0.00642975
-0.00603317
-0.00544417
-0.00466827
-0.00371132
-0.00257952
-0.00127938
0.000182199
0.001798
0.00356043
0.00546147
0.00749268
0.00964522
0.0119099
0.0142769
0.0167362
0.0192773
0.0218891
0.0245601
0.0272787
0.0300326
0.0328093
0.0355959
0.0383792
0.0411458
0.0438819
0.0465738
0.0492076
0.0517692
0.0542446
0.0566201
0.058882
0.0610169
0.0630116
0.0648537
0.0665309
0.0680318
0.0693454
0.0704617
0.0713715
0.0720665
0.0725395
0.0727841
0.0727951
0.0725684
0.0721008
0.0713903
0.0704362
0.0692385
0.0677982
0.0661172
0.0641981
0.0620441
0.0596592
0.0570476
0.054212
0.0511554
0.0479051
0.0444844
0.0405753
0.0359107
0.02951
0.0244451
0.0202579
0.0166527
0.0132735
0.0101384
0.00726981
0.00466283
0.00231221
0.000214532
-0.00163379
-0.00323655
-0.00459777
-0.00572158
-0.00661227
-0.00727432
-0.0077124
-0.00793138
-0.00793635
-0.00773262
-0.00732571
-0.00672139
-0.00592562
-0.00494472
-0.00378524
-0.00245404
-0.000958244
0.000694682
0.00249694
0.00444033
0.00651632
0.00871598
0.01103
0.0134487
0.0159617
0.0185587
0.0212283
0.0239594
0.0267399
0.0295577
0.0324001
0.0352542
0.0381066
0.0409438
0.0437518
0.0465167
0.0492242
0.05186
0.0544099
0.0568595
0.0591949
0.061402
0.0634673
0.0653776
0.0671201
0.0686825
0.0700534
0.0712219
0.072178
0.0729126
0.0734176
0.0736858
0.0737111
0.0734885
0.0730141
0.0722851
0.0712998
0.0700576
0.0685587
0.0668045
0.064797
0.062539
0.0600342
0.0572866
0.0542988
0.0510739
0.0476407
0.0440243
0.0398886
0.0349513
0.0296721
0.024347
0.0199467
0.0161608
0.0126151
0.00932882
0.00632506
0.00359856
0.00114336
-0.00104467
-0.00296983
-0.00463671
-0.00605019
-0.00721518
-0.00813679
-0.00882031
-0.00927117
-0.00949498
-0.00949753
-0.00928473
-0.00886268
-0.00823766
-0.00741618
-0.00640494
-0.00521088
-0.00384118
-0.00230325
-0.00060481
0.00124612
0.00324118
0.00537169
0.00762863
0.0100026
0.0124838
0.0150618
0.0177262
0.0204657
0.0232689
0.0261238
0.0290181
0.0319391
0.0348737
0.0378084
0.0407295
0.0436227
0.046474
0.0492686
0.0519921
0.0546296
0.0571665
0.0595882
0.0618803
0.0640286
0.0660192
0.0678386
0.0694739
0.0709128
0.0721436
0.0731556
0.0739387
0.0744839
0.0747832
0.0748295
0.074617
0.0741409
0.0733976
0.0723846
0.0711005
0.069545
0.0677187
0.0656234
0.0632613
0.060636
0.0577514
0.05461
0.051215
0.047597
0.0437828
0.0394179
0.0342051
0.0295432
0.0239578
0.0193446
0.0153782
0.0116663
0.00822902
0.00509053
0.00224502
-0.000314066
-0.00259152
-0.00459234
-0.00632193
-0.00778586
-0.00898986
-0.00993985
-0.0106419
-0.0111021
-0.0113269
-0.0113226
-0.0110959
-0.0106534
-0.0100019
-0.00914834
-0.00809997
-0.00686406
-0.00544809
-0.00385982
-0.00210721
-0.000198533
0.0018577
0.00405266
0.0063772
0.00882178
0.0113765
0.0140309
0.0167744
0.0195957
0.0224833
0.0254251
0.0284088
0.0314214
0.0344496
0.03748
0.0404983
0.0434904
0.0464416
0.0493371
0.0521618
0.0549006
0.0575383
0.0600599
0.0624502
0.0646944
0.0667779
0.0686866
0.0704067
0.0719251
0.0732292
0.0743075
0.0751488
0.0757434
0.0760821
0.0761571
0.0759616
0.0754898
0.0747375
0.0737012
0.0723788
0.0707694
0.0688731
0.0666911
0.0642255
0.0614795
0.0584571
0.0551607
0.0515937
0.0477887
0.043774
0.0391766
0.0336843
0.0291078
0.0232615
0.0184349
0.0142879
0.0104099
0.00682189
0.00354919
0.000585435
-0.00207653
-0.00444212
-0.006517
-0.00830731
-0.00981935
-0.0110596
-0.0120348
-0.0127518
-0.0132174
-0.0134387
-0.0134227
-0.0131767
-0.0127078
-0.0120235
-0.0111312
-0.0100384
-0.00875297
-0.00728264
-0.0056355
-0.00381981
-0.00184403
0.000283117
0.00255266
0.00495528
0.00748132
0.0101207
0.012863
0.0156974
0.0186127
0.0215971
0.0246385
0.0277243
0.0308416
0.0339769
0.0371163
0.0402457
0.0433504
0.0464155
0.0494258
0.0523658
0.0552199
0.0579724
0.0606076
0.0631098
0.0654635
0.0676534
0.0696644
0.071482
0.0730922
0.0744815
0.0756373
0.0765476
0.0772016
0.0775892
0.0777015
0.0775307
0.0770704
0.0763152
0.0752608
0.0739046
0.0722449
0.0702813
0.0680145
0.0654463
0.0625799
0.0594191
0.0559665
0.0522256
0.0482309
0.0440127
0.0391787
0.0334014
0.0283504
0.0222417
0.0172008
0.0128728
0.00882852
0.00509005
0.0016837
-0.00139736
-0.00416093
-0.00661299
-0.0087599
-0.0106085
-0.0121657
-0.013439
-0.0144357
-0.0151635
-0.0156298
-0.0158425
-0.0158093
-0.015538
-0.0150364
-0.0143125
-0.0133742
-0.0122294
-0.0108863
-0.00935318
-0.00763832
-0.0057503
-0.0036978
-0.00148974
0.000864724
0.00335611
0.00597461
0.00871003
0.0115519
0.0144892
0.0175106
0.0206043
0.023758
0.0269591
0.0301943
0.0334501
0.0367124
0.0399667
0.0431981
0.0463913
0.0495307
0.0526003
0.0555842
0.058466
0.0612293
0.0638579
0.0663353
0.0686455
0.0707726
0.0727012
0.0744163
0.0759035
0.0771491
0.0781401
0.0788645
0.0793113
0.0794706
0.0793335
0.0788927
0.0781417
0.0770756
0.0756909
0.0739852
0.0719577
0.0696085
0.0669394
0.063953
0.0606535
0.0570435
0.0531266
0.0489394
0.0445139
0.0394385
0.0333696
0.0272548
0.0208815
0.015625
0.0111152
0.00690443
0.00301568
-0.000523683
-0.00372097
-0.00658461
-0.00912115
-0.0113376
-0.0132415
-0.0148406
-0.0161431
-0.0171571
-0.0178908
-0.0183527
-0.0185512
-0.0184947
-0.0181916
-0.0176504
-0.0168796
-0.0158874
-0.0146825
-0.0132733
-0.0116685
-0.00987676
-0.00790683
-0.00576768
-0.00346844
-0.00101848
0.00157255
0.00429469
0.00713765
0.0100908
0.0131431
0.016283
0.0194987
0.0227777
0.0261072
0.0294739
0.0328639
0.0362629
0.0396563
0.0430287
0.0463645
0.0496477
0.0528619
0.0559904
0.0590164
0.0619229
0.0646927
0.0673088
0.0697541
0.072012
0.0740659
0.0759
0.0774987
0.0788473
0.0799316
0.0807386
0.0812561
0.0814731
0.0813797
0.0809673
0.0802287
0.0791582
0.0777512
0.0760048
0.0739175
0.0714891
0.0687209
0.0656156
0.0621773
0.0584086
0.0543136
0.0499306
0.0452937
0.0399712
0.0336031
0.0258044
0.0191636
0.0136896
0.0089971
0.00461938
0.00058044
-0.00309125
-0.00640354
-0.00936545
-0.0119842
-0.0142673
-0.0162231
-0.0178603
-0.0191875
-0.0202138
-0.0209483
-0.0213999
-0.021578
-0.0214915
-0.0211496
-0.0205613
-0.0197356
-0.0186815
-0.0174079
-0.0159237
-0.0142379
-0.0123596
-0.0102979
-0.00806185
-0.0056609
-0.00310463
-0.000402851
0.00243435
0.00539654
0.00847299
0.0116525
0.0149236
0.018274
0.0216914
0.0251627
0.0286744
0.0322125
0.0357625
0.0393094
0.0428374
0.0463307
0.0497728
0.0531467
0.0564353
0.0596211
0.0626863
0.065613
0.0683833
0.0709793
0.0733834
0.075578
0.077546
0.0792709
0.0807367
0.0819282
0.0828309
0.0834317
0.0837182
0.0836795
0.0833058
0.082589
0.0815222
0.0801001
0.0783191
0.0761769
0.0736729
0.0708082
0.0675853
0.0640083
0.0600798
0.0558043
0.0512221
0.0463691
0.0407931
0.0341171
0.0239818
0.0170701
0.0113764
0.00649979
0.00195451
-0.00223458
-0.00603789
-0.00946378
-0.0125219
-0.0152201
-0.0175667
-0.0195706
-0.0212414
-0.0225885
-0.0236217
-0.0243509
-0.0247859
-0.0249366
-0.0248129
-0.0244246
-0.0237811
-0.0228922
-0.0217673
-0.0204159
-0.0188473
-0.0170709
-0.0150961
-0.0129322
-0.0105888
-0.00807529
-0.00540162
-0.00257773
0.000386146
0.00347948
0.0066914
0.0100106
0.0134254
0.0169236
0.0204926
0.0241193
0.0277899
0.0314903
0.0352056
0.0389206
0.0426193
0.0462853
0.0499017
0.0534511
0.0569156
0.0602772
0.0635173
0.0666173
0.0695582
0.0723213
0.0748879
0.0772393
0.0793573
0.0812242
0.0828226
0.0841361
0.085149
0.0858468
0.0862159
0.0862441
0.0859205
0.0852358
0.084182
0.082753
0.0809442
0.0787528
0.0761777
0.0732196
0.0698809
0.0661655
0.0620763
0.0576177
0.0528325
0.0477584
0.0419217
0.0349279
0.021769
0.0145823
0.00866611
0.00360383
-0.00110984
-0.00544904
-0.00938318
-0.0129211
-0.0160732
-0.0188478
-0.0212542
-0.023302
-0.0250014
-0.0263629
-0.0273969
-0.0281143
-0.0285256
-0.0286416
-0.0284727
-0.0280295
-0.0273223
-0.0263611
-0.0251562
-0.0237174
-0.0220545
-0.0201773
-0.0180955
-0.0158189
-0.013357
-0.0107199
-0.0079175
-0.00495989
-0.00185747
0.0013791
0.00473883
0.00821032
0.0117818
0.0154409
0.019175
0.0229707
0.0268143
0.0306912
0.0345866
0.0384846
0.0423692
0.0462235
0.0500301
0.0537711
0.057428
0.0609821
0.064414
0.0677041
0.0708329
0.0737804
0.0765267
0.0790521
0.0813372
0.0833627
0.0851103
0.086562
0.0877007
0.0885106
0.0889766
0.0890852
0.0888242
0.0881831
0.0871528
0.0857261
0.0838975
0.0816636
0.0790226
0.0759748
0.0725223
0.0686692
0.0644183
0.0597743
0.0547819
0.0494811
0.0433758
0.0360535
0.019147
0.0116805
0.00553872
0.000288942
-0.00459405
-0.00908342
-0.0131475
-0.0167957
-0.0200392
-0.022887
-0.025349
-0.0274358
-0.0291584
-0.0305281
-0.0315563
-0.0322546
-0.0326345
-0.0327075
-0.032485
-0.031978
-0.0311976
-0.0301546
-0.0288597
-0.0273233
-0.0255557
-0.023567
-0.0213674
-0.0189669
-0.0163755
-0.0136033
-0.0106604
-0.00755717
-0.00430412
-0.000911999
0.00260807
0.00624461
0.00998572
0.0138191
0.0177318
0.0217106
0.0257413
0.0298093
0.0338995
0.0379959
0.042082
0.0461404
0.0501535
0.0541027
0.057969
0.0617328
0.065374
0.0688722
0.0722067
0.0753566
0.0783009
0.0810186
0.0834888
0.0856912
0.0876056
0.0892129
0.0904944
0.0914327
0.0920113
0.0922152
0.0920308
0.0914461
0.0904509
0.0890368
0.0871975
0.0849286
0.0822277
0.0790945
0.0755311
0.0715413
0.0671278
0.0622957
0.057092
0.0515585
0.0451761
0.0375132
0.0160958
0.00834427
0.00197328
-0.00346611
-0.00851949
-0.0131591
-0.0173522
-0.0211088
-0.0244408
-0.0273581
-0.0298712
-0.0319916
-0.0337312
-0.0351024
-0.0361173
-0.0367886
-0.0371287
-0.0371498
-0.0368642
-0.0362837
-0.0354202
-0.034285
-0.0328896
-0.0312448
-0.0293615
-0.0272502
-0.0249214
-0.0223855
-0.0196528
-0.0167337
-0.0136384
-0.0103774
-0.00696137
-0.00340119
0.000291939
0.00410648
0.00803047
0.0120515
0.0161567
0.0203325
0.0245647
0.0288386
0.0331388
0.037449
0.0417524
0.0460313
0.0502676
0.0544421
0.0585351
0.0625264
0.0663952
0.07012
0.0736791
0.0770505
0.080212
0.0831412
0.0858159
0.0882143
0.0903147
0.0920963
0.0935389
0.0946234
0.0953317
0.0956471
0.0955546
0.0950406
0.0940935
0.0927038
0.0908639
0.0885686
0.0858147
0.0826013
0.0789302
0.074805
0.0702284
0.0652057
0.0597861
0.0540136
0.0473446
0.0393283
0.0125944
0.0045519
-0.00205223
-0.00768359
-0.0129086
-0.0176986
-0.0220197
-0.0258826
-0.0293
-0.0322824
-0.0348415
-0.0369895
-0.0387395
-0.0401046
-0.0410982
-0.0417337
-0.0420246
-0.0419841
-0.0416252
-0.0409608
-0.0400033
-0.038765
-0.0372578
-0.0354931
-0.0334824
-0.0312368
-0.028767
-0.0260838
-0.0231978
-0.0201195
-0.0168594
-0.0134282
-0.00983665
-0.00609569
-0.00221658
0.00178909
0.00590934
0.0101317
0.0144432
0.0188302
0.0232785
0.0277732
0.0322986
0.0368384
0.0413752
0.0458913
0.0503678
0.0547851
0.0591229
0.0633603
0.0674754
0.0714461
0.0752495
0.0788624
0.0822613
0.0854225
0.0883222
0.0909371
0.093244
0.0952201
0.0968436
0.0980936
0.0989502
0.0993951
0.0994112
0.0989836
0.0980992
0.0967468
0.0949178
0.0926058
0.0898068
0.0865192
0.0827443
0.0784855
0.0737456
0.0685298
0.0628896
0.0568712
0.0499057
0.041522
0.00862082
0.000280668
-0.00656105
-0.012387
-0.0177851
-0.0227255
-0.0271735
-0.0311403
-0.0346395
-0.0376825
-0.0402818
-0.0424509
-0.0442036
-0.0455544
-0.0465176
-0.0471078
-0.0473393
-0.0472265
-0.0467834
-0.0460237
-0.0449606
-0.0436073
-0.0419761
-0.0400795
-0.0379292
-0.0355368
-0.0329135
-0.0300706
-0.0270187
-0.0237687
-0.0203312
-0.0167171
-0.0129371
-0.0090024
-0.0049242
-0.000714105
0.00361589
0.00805331
0.0125851
0.0171977
0.0218768
0.0266073
0.0313735
0.0361587
0.0409455
0.0457155
0.0504497
0.0551278
0.0597289
0.0642314
0.0686125
0.0728491
0.0769174
0.0807927
0.0844503
0.0878651
0.0910117
0.093865
0.0964001
0.0985925
0.100418
0.101855
0.10288
0.103474
0.103617
0.103293
0.102488
0.101187
0.0993819
0.0970642
0.0942291
0.0908742
0.0870001
0.0826102
0.0777069
0.0722955
0.0664298
0.0601584
0.0528858
0.0441196
0.00415158
-0.0044935
-0.0115777
-0.0176013
-0.0231739
-0.028265
-0.0328384
-0.0369064
-0.0404834
-0.0435818
-0.0462151
-0.0483978
-0.050145
-0.0514722
-0.0523951
-0.0529292
-0.0530903
-0.0528936
-0.0523542
-0.0514868
-0.0503057
-0.0488245
-0.0470566
-0.045015
-0.0427121
-0.0401599
-0.0373703
-0.0343545
-0.0311237
-0.0276889
-0.024061
-0.0202509
-0.0162695
-0.0121278
-0.00783725
-0.00340929
0.00114407
0.00581038
0.0105766
0.0154292
0.0203538
0.0253353
0.0303579
0.0354047
0.040458
0.0454993
0.0505089
0.0554662
0.0603496
0.0651368
0.0698042
0.0743276
0.0786821
0.0828418
0.0867806
0.0904717
0.0938883
0.0970033
0.0997901
0.102222
0.104273
0.105919
0.107135
0.107899
0.10819
0.107989
0.10728
0.106047
0.10428
0.101969
0.0991083
0.095694
0.0917265
0.0872084
0.0821421
0.0765327
0.0704367
0.0639047
0.0563136
0.047149
-0.000838096
-0.00979617
-0.0171284
-0.0233527
-0.0291016
-0.0343433
-0.0390408
-0.043207
-0.0468573
-0.0500052
-0.0526653
-0.0548534
-0.0565858
-0.0578792
-0.0587507
-0.0592172
-0.0592954
-0.0590021
-0.0583534
-0.0573649
-0.056052
-0.0544292
-0.0525109
-0.0503105
-0.0478412
-0.0451155
-0.0421457
-0.0389435
-0.0355202
-0.0318873
-0.0280556
-0.0240361
-0.0198399
-0.0154779
-0.0109615
-0.00630209
-0.00151166
0.00339744
0.00841229
0.0135193
0.0187043
0.023952
0.0292467
0.0345713
0.0399081
0.045238
0.0505411
0.0557963
0.0609816
0.0660736
0.0710482
0.0758801
0.080543
0.0850101
0.0892536
0.0932452
0.0969562
0.100358
0.103421
0.106118
0.108419
0.110299
0.111729
0.112687
0.113148
0.113091
0.112498
0.111352
0.109639
0.107348
0.104473
0.101009
0.0969544
0.092312
0.0870834
0.0812741
0.0749427
0.0681423
0.0602207
0.0506405
-0.00637445
-0.0156545
-0.0232406
-0.0296693
-0.0355962