/*--------------------------------*- C++ -*----------------------------------*\
  =========                 |
  \\      /  F ield         | OpenFOAM: The Open Source CFD Toolbox
   \\    /   O peration     | Website:  https://openfoam.org
    \\  /    A nd           | Version:  7
     \\/     M anipulation  |
\*---------------------------------------------------------------------------*/
FoamFile
{
    version     2.0;
    format      ascii;
    class       surfaceScalarField;
    location    "0.175";
    object      phi;
}
// * * * * * * * * * * * * * * * * * * * * * * * * * * * * * * * * * * * * * //

dimensions      [0 3 -1 0 0 0 0];

internalField   nonuniform List<scalar> 
12640
(
1.90262e-10
-1.90262e-10
5.55462e-10
-3.65157e-10
8.81778e-10
-3.26353e-10
1.04397e-09
-1.62165e-10
9.79813e-10
6.41323e-11
6.6228e-10
3.17535e-10
8.45139e-11
5.77775e-10
-7.48397e-10
8.32896e-10
-1.82421e-09
1.07579e-09
-3.12646e-09
1.30222e-09
-4.63614e-09
1.50968e-09
-6.33283e-09
1.69667e-09
-8.19527e-09
1.86246e-09
-1.0202e-08
2.00672e-09
-1.23314e-08
2.12945e-09
-1.45624e-08
2.23094e-09
-1.6874e-08
2.31159e-09
-1.92459e-08
2.37193e-09
-2.16584e-08
2.41255e-09
-2.40925e-08
2.43414e-09
-2.653e-08
2.43742e-09
-2.89531e-08
2.42317e-09
-3.13453e-08
2.39215e-09
-3.36904e-08
2.34518e-09
-3.59735e-08
2.28305e-09
-3.81801e-08
2.20661e-09
-4.02968e-08
2.11669e-09
-4.23109e-08
2.01412e-09
-4.42107e-08
1.89974e-09
-4.59851e-08
1.77441e-09
-4.7624e-08
1.63895e-09
-4.91182e-08
1.49422e-09
-5.04593e-08
1.34109e-09
-5.16397e-08
1.18042e-09
-5.26528e-08
1.0131e-09
-5.34928e-08
8.40003e-10
-5.41549e-08
6.62045e-10
-5.4635e-08
4.80138e-10
-5.49302e-08
2.95207e-10
-5.50384e-08
1.08193e-10
-5.49585e-08
-7.99387e-11
-5.46903e-08
-2.68202e-10
-5.42347e-08
-4.55595e-10
-5.35936e-08
-6.411e-10
-5.27699e-08
-8.23684e-10
-5.17676e-08
-1.0023e-09
-5.05918e-08
-1.17588e-09
-4.92484e-08
-1.34334e-09
-4.77448e-08
-1.50359e-09
-4.60893e-08
-1.65556e-09
-4.42912e-08
-1.79814e-09
-4.23609e-08
-1.93024e-09
-4.03101e-08
-2.05079e-09
-3.81514e-08
-2.15871e-09
-3.58985e-08
-2.25295e-09
-3.3566e-08
-2.33251e-09
-3.11696e-08
-2.39638e-09
-2.8726e-08
-2.44363e-09
-2.62526e-08
-2.47335e-09
-2.37679e-08
-2.48472e-09
-2.12909e-08
-2.47695e-09
-1.88416e-08
-2.44935e-09
-1.64402e-08
-2.40134e-09
-1.41078e-08
-2.3324e-09
-1.18657e-08
-2.24215e-09
-9.7353e-09
-2.13037e-09
-7.73832e-09
-1.99698e-09
-5.89619e-09
-1.84214e-09
-4.22993e-09
-1.66625e-09
-2.75983e-09
-1.47009e-09
-1.50489e-09
-1.25493e-09
-4.82123e-10
-1.02275e-09
2.94487e-10
-7.76602e-10
8.15731e-10
-5.21236e-10
1.07997e-09
-2.64229e-10
1.09789e-09
-1.79184e-11
9.00487e-10
1.97392e-10
5.53419e-10
3.47058e-10
1.837e-10
3.69719e-10
1.83712e-10
3.65539e-10
-5.55812e-10
8.85144e-10
-8.84756e-10
1.2146e-09
-6.55816e-10
1.13125e-09
-7.88114e-11
4.97561e-10
6.97848e-10
-7.60219e-10
1.57529e-09
-2.67115e-09
2.48875e-09
-5.23417e-09
3.39593e-09
-8.42779e-09
4.26944e-09
-1.2217e-08
5.09142e-09
-1.65576e-08
5.85032e-09
-2.13998e-08
6.53884e-09
-2.66899e-08
7.15256e-09
-3.23723e-08
7.68905e-09
-3.83902e-08
8.14735e-09
-4.46868e-08
8.52757e-09
-5.12058e-08
8.83056e-09
-5.78917e-08
9.05781e-09
-6.46903e-08
9.21118e-09
-7.1549e-08
9.29288e-09
-7.8417e-08
9.30537e-09
-8.52451e-08
9.25131e-09
-9.19865e-08
9.13352e-09
-9.85962e-08
8.95489e-09
-1.05032e-07
8.71843e-09
-1.11252e-07
8.42721e-09
-1.1722e-07
8.08433e-09
-1.22899e-07
7.69294e-09
-1.28255e-07
7.25625e-09
-1.33258e-07
6.77746e-09
-1.37879e-07
6.25982e-09
-1.42092e-07
5.70662e-09
-1.45872e-07
5.12117e-09
-1.49198e-07
4.5068e-09
-1.52052e-07
3.86691e-09
-1.54417e-07
3.20493e-09
-1.56279e-07
2.52436e-09
-1.57628e-07
1.82873e-09
-1.58454e-07
1.12162e-09
-1.58753e-07
4.06702e-10
-1.5852e-07
-3.12313e-10
-1.57757e-07
-1.03163e-09
-1.56465e-07
-1.74741e-09
-1.5465e-07
-2.45573e-09
-1.52321e-07
-3.15263e-09
-1.4949e-07
-3.83408e-09
-1.4617e-07
-4.496e-09
-1.42379e-07
-5.13428e-09
-1.38137e-07
-5.7448e-09
-1.3347e-07
-6.32342e-09
-1.28402e-07
-6.86599e-09
-1.22964e-07
-7.3684e-09
-1.17188e-07
-7.82655e-09
-1.1111e-07
-8.23645e-09
-1.04769e-07
-8.59417e-09
-9.82054e-08
-8.89593e-09
-9.14638e-08
-9.13805e-09
-8.45903e-08
-9.31706e-09
-7.7634e-08
-9.42968e-09
-7.06458e-08
-9.47291e-09
-6.36787e-08
-9.444e-09
-5.67875e-08
-9.34057e-09
-5.00282e-08
-9.1606e-09
-4.34581e-08
-8.90253e-09
-3.71349e-08
-8.56533e-09
-3.11166e-08
-8.14859e-09
-2.54609e-08
-7.65268e-09
-2.02242e-08
-7.07889e-09
-1.54607e-08
-6.42972e-09
-1.12215e-08
-5.70923e-09
-7.55294e-09
-4.92354e-09
-4.49396e-09
-4.08174e-09
-2.07352e-09
-3.19705e-09
-3.05844e-10
-2.28892e-09
8.1601e-10
-1.38608e-09
1.32959e-09
-5.31487e-10
1.31677e-09
2.10227e-10
9.21607e-10
7.42233e-10
3.69669e-10
9.21666e-10
5.53384e-10
3.29556e-10
-8.85364e-10
6.64255e-10
-1.21943e-09
6.09829e-10
-6.01372e-10
-9.43613e-11
6.2538e-10
-1.61892e-09
2.22241e-09
-4.063e-09
4.01937e-09
-7.4709e-09
5.89662e-09
-1.18466e-08
7.77158e-09
-1.71646e-08
9.58746e-09
-2.33786e-08
1.13054e-08
-3.04273e-08
1.2899e-08
-3.82391e-08
1.43507e-08
-4.67356e-08
1.56491e-08
-5.58339e-08
1.67874e-08
-6.54486e-08
1.77621e-08
-7.54934e-08
1.85723e-08
-8.58817e-08
1.92189e-08
-9.65279e-08
1.9704e-08
-1.07348e-07
2.00312e-08
-1.1826e-07
2.02045e-08
-1.29183e-07
2.02289e-08
-1.40042e-07
2.01098e-08
-1.50761e-07
1.98528e-08
-1.6127e-07
1.94642e-08
-1.71502e-07
1.89501e-08
-1.81392e-07
1.8317e-08
-1.90879e-07
1.75717e-08
-1.99907e-07
1.67209e-08
-2.08422e-07
1.57714e-08
-2.16375e-07
1.47303e-08
-2.2372e-07
1.36045e-08
-2.30414e-07
1.24013e-08
-2.36421e-07
1.11278e-08
-2.41706e-07
9.79143e-09
-2.46238e-07
8.3995e-09
-2.49993e-07
6.95955e-09
-2.52948e-07
5.47923e-09
-2.55085e-07
3.96627e-09
-2.56392e-07
2.42853e-09
-2.5686e-07
8.74002e-10
-2.56483e-07
-6.89162e-10
-2.55262e-07
-2.2527e-09
-2.53201e-07
-3.80821e-09
-2.50309e-07
-5.34717e-09
-2.46601e-07
-6.86094e-09
-2.42094e-07
-8.34075e-09
-2.36813e-07
-9.77777e-09
-2.30784e-07
-1.11631e-08
-2.24041e-07
-1.24878e-08
-2.16622e-07
-1.37428e-08
-2.08568e-07
-1.49194e-08
-1.99928e-07
-1.60085e-08
-1.90753e-07
-1.70015e-08
-1.811e-07
-1.78898e-08
-1.71029e-07
-1.86649e-08
-1.60606e-07
-1.93188e-08
-1.499e-07
-1.98438e-08
-1.38985e-07
-2.02324e-08
-1.27937e-07
-2.04779e-08
-1.16836e-07
-2.05739e-08
-1.05765e-07
-2.0515e-08
-9.48092e-08
-2.02962e-08
-8.4056e-08
-1.99138e-08
-7.35938e-08
-1.93647e-08
-6.35116e-08
-1.86475e-08
-5.38982e-08
-1.7762e-08
-4.4841e-08
-1.67099e-08
-3.64249e-08
-1.5495e-08
-2.87307e-08
-1.41239e-08
-2.18331e-08
-1.26068e-08
-1.57982e-08
-1.09584e-08
-1.06801e-08
-9.19985e-09
-6.51642e-09
-7.36074e-09
-3.32245e-09
-5.48289e-09
-1.08319e-09
-3.62535e-09
2.57129e-10
-1.87182e-09
8.08504e-10
-3.41152e-10
7.5063e-10
8.00109e-10
3.49691e-10
1.3226e-09
9.03074e-10
1.70976e-10
-1.05639e-09
1.0243e-10
-1.15087e-09
-5.91688e-10
9.2756e-11
-2.17491e-09
2.20855e-09
-4.82402e-09
4.87155e-09
-8.64531e-09
7.84066e-09
-1.36881e-08
1.09394e-08
-1.99572e-08
1.40407e-08
-2.74234e-08
1.70536e-08
-3.60315e-08
1.99135e-08
-4.57072e-08
2.25747e-08
-5.63623e-08
2.50058e-08
-6.78987e-08
2.71854e-08
-8.02116e-08
2.91003e-08
-9.31922e-08
3.07427e-08
-1.06729e-07
3.21093e-08
-1.20711e-07
3.32002e-08
-1.35025e-07
3.40183e-08
-1.49562e-07
3.45683e-08
-1.64214e-07
3.48566e-08
-1.78876e-07
3.48909e-08
-1.93446e-07
3.46797e-08
-2.07826e-07
3.42325e-08
-2.21921e-07
3.35594e-08
-2.35642e-07
3.26708e-08
-2.48902e-07
3.15777e-08
-2.61622e-07
3.02914e-08
-2.73725e-07
2.88234e-08
-2.85139e-07
2.71854e-08
-2.95798e-07
2.53894e-08
-3.05641e-07
2.34475e-08
-3.14611e-07
2.1372e-08
-3.22659e-07
1.91753e-08
-3.29738e-07
1.68702e-08
-3.35808e-07
1.44694e-08
-3.40834e-07
1.19859e-08
-3.44788e-07
9.43292e-09
-3.47645e-07
6.82392e-09
-3.49389e-07
4.17247e-09
-3.50008e-07
1.49242e-09
-3.49495e-07
-1.20216e-09
-3.4785e-07
-3.89696e-09
-3.45081e-07
-6.57751e-09
-3.41199e-07
-9.22907e-09
-3.36223e-07
-1.18367e-08
-3.30179e-07
-1.43855e-08
-3.23096e-07
-1.686e-08
-3.15014e-07
-1.92451e-08
-3.05977e-07
-2.15254e-08
-2.96034e-07
-2.36856e-08
-2.85243e-07
-2.57103e-08
-2.73667e-07
-2.75845e-08
-2.61376e-07
-2.92931e-08
-2.48444e-07
-3.08218e-08
-2.34952e-07
-3.21561e-08
-2.20989e-07
-3.32824e-08
-2.06645e-07
-3.41878e-08
-1.92017e-07
-3.48598e-08
-1.77208e-07
-3.5287e-08
-1.62323e-07
-3.54592e-08
-1.47471e-07
-3.53673e-08
-1.32763e-07
-3.50035e-08
-1.18315e-07
-3.43617e-08
-1.04242e-07
-3.34379e-08
-9.06595e-08
-3.22303e-08
-7.76819e-08
-3.07396e-08
-6.5422e-08
-2.89698e-08
-5.39881e-08
-2.69289e-08
-4.34824e-08
-2.46297e-08
-3.39983e-08
-2.20909e-08
-2.56173e-08
-1.93394e-08
-1.84051e-08
-1.64121e-08
-1.24062e-08
-1.33596e-08
-7.63774e-09
-1.02513e-08
-4.08165e-09
-7.18143e-09
-1.67487e-09
-4.27861e-09
-2.97834e-10
-1.71819e-09
2.38271e-10
2.64005e-10
2.06563e-10
1.3543e-09
1.10964e-09
-4.82412e-11
-1.00815e-09
-6.56316e-10
-5.42776e-10
-2.16129e-09
1.5977e-09
-4.80304e-09
4.85031e-09
-8.74547e-09
8.81397e-09
-1.40878e-08
1.3183e-08
-2.08749e-08
1.77265e-08
-2.91071e-08
2.22729e-08
-3.87487e-08
2.66953e-08
-4.97361e-08
3.09009e-08
-6.19836e-08
3.48222e-08
-7.5389e-08
3.84112e-08
-8.9838e-08
4.16345e-08
-1.05208e-07
4.447e-08
-1.2137e-07
4.69044e-08
-1.38191e-07
4.89309e-08
-1.55539e-07
5.05481e-08
-1.73279e-07
5.17586e-08
-1.91279e-07
5.25685e-08
-2.09409e-07
5.29862e-08
-2.2754e-07
5.30224e-08
-2.4555e-07
5.26893e-08
-2.63318e-07
5.20006e-08
-2.8073e-07
5.09709e-08
-2.97675e-07
4.96157e-08
-3.14048e-07
4.79512e-08
-3.29751e-07
4.59941e-08
-3.44689e-07
4.37619e-08
-3.58776e-07
4.1272e-08
-3.71929e-07
3.85425e-08
-3.84073e-07
3.55917e-08
-3.95139e-07
3.24383e-08
-4.05065e-07
2.91012e-08
-4.13795e-07
2.55996e-08
-4.21278e-07
2.19529e-08
-4.27473e-07
1.8181e-08
-4.32344e-07
1.4304e-08
-4.35863e-07
1.03422e-08
-4.38007e-07
6.31645e-09
-4.38762e-07
2.24771e-09
-4.38122e-07
-1.84259e-09
-4.36086e-07
-5.93273e-09
-4.32663e-07
-1.00007e-08
-4.27868e-07
-1.40241e-08
-4.21724e-07
-1.79805e-08
-4.14262e-07
-2.18469e-08
-4.05522e-07
-2.56003e-08
-3.9555e-07
-2.92177e-08
-3.84399e-07
-3.26758e-08
-3.72133e-07
-3.59516e-08
-3.58821e-07
-3.9022e-08
-3.44542e-07
-4.18643e-08
-3.29379e-07
-4.44561e-08
-3.13425e-07
-4.67754e-08
-2.9678e-07
-4.88012e-08
-2.79549e-07
-5.0513e-08
-2.61846e-07
-5.18915e-08
-2.43787e-07
-5.29184e-08
-2.25497e-07
-5.35769e-08
-2.07104e-07
-5.38522e-08
-1.8874e-07
-5.37309e-08
-1.70542e-07
-5.32023e-08
-1.52645e-07
-5.22581e-08
-1.3519e-07
-5.0893e-08
-1.18315e-07
-4.91054e-08
-1.02157e-07
-4.68977e-08
-8.68492e-08
-4.42774e-08
-7.25202e-08
-4.12579e-08
-5.92899e-08
-3.786e-08
-4.72673e-08
-3.41135e-08
-3.65472e-08
-3.00595e-08
-2.72054e-08
-2.57539e-08
-1.92937e-08
-2.12713e-08
-1.28341e-08
-1.6711e-08
-7.8112e-09
-1.22043e-08
-4.16442e-09
-7.92539e-09
-1.7787e-09
-4.1039e-09
-4.74931e-10
-1.03976e-09
1.04814e-12
8.78325e-10
1.11069e-09
-2.9486e-10
-7.13304e-10
-1.51948e-09
6.81895e-10
-3.94181e-09
4.02005e-09
-7.76051e-09
8.66899e-09
-1.31125e-08
1.41659e-08
-2.0079e-08
2.01495e-08
-2.86922e-08
2.63397e-08
-3.89423e-08
3.25229e-08
-5.0784e-08
3.85371e-08
-6.41437e-08
4.42605e-08
-7.89243e-08
4.96028e-08
-9.50109e-08
5.44978e-08
-1.12275e-07
5.88985e-08
-1.30578e-07
6.27728e-08
-1.49774e-07
6.61003e-08
-1.69712e-07
6.88697e-08
-1.90242e-07
7.10773e-08
-2.11208e-07
7.27252e-08
-2.3246e-07
7.38203e-08
-2.53847e-07
7.4373e-08
-2.75222e-07
7.43971e-08
-2.96441e-07
7.39086e-08
-3.17366e-07
7.29258e-08
-3.37864e-07
7.14685e-08
-3.57806e-07
6.95575e-08
-3.7707e-07
6.72153e-08
-3.9554e-07
6.44648e-08
-4.13108e-07
6.13299e-08
-4.29672e-07
5.78351e-08
-4.45134e-07
5.40053e-08
-4.59409e-07
4.98663e-08
-4.72414e-07
4.54438e-08
-4.84078e-07
4.07645e-08
-4.94333e-07
3.58552e-08
-5.03124e-07
3.07432e-08
-5.10399e-07
2.54562e-08
-5.16117e-07
2.00224e-08
-5.20245e-07
1.44705e-08
-5.22758e-07
8.82945e-09
-5.2364e-07
3.12884e-09
-5.22881e-07
-2.60136e-09
-5.20483e-07
-8.33075e-09
-5.16455e-07
-1.40285e-08
-5.10816e-07
-1.96633e-08
-5.03593e-07
-2.52036e-08
-4.94822e-07
-3.06176e-08
-4.84549e-07
-3.58731e-08
-4.72829e-07
-4.09379e-08
-4.59725e-07
-4.57798e-08
-4.4531e-07
-5.03665e-08
-4.29666e-07
-5.46661e-08
-4.12883e-07
-5.86471e-08
-3.95061e-07
-6.22784e-08
-3.76306e-07
-6.55298e-08
-3.56736e-07
-6.8372e-08
-3.36472e-07
-7.0777e-08
-3.15645e-07
-7.27182e-08
-2.94392e-07
-7.41708e-08
-2.72857e-07
-7.5112e-08
-2.51188e-07
-7.55215e-08
-2.29537e-07
-7.53818e-08
-2.08061e-07
-7.46787e-08
-1.86917e-07
-7.34017e-08
-1.66266e-07
-7.15445e-08
-1.46265e-07
-6.91062e-08
-1.27071e-07
-6.60915e-08
-1.08836e-07
-6.25124e-08
-9.1705e-08
-5.83889e-08
-7.58137e-08
-5.37513e-08
-6.12853e-08
-4.86419e-08
-4.82266e-08
-4.31182e-08
-3.6724e-08
-3.72565e-08
-2.68385e-08
-3.11568e-08
-1.86001e-08
-2.49493e-08
-1.20022e-08
-1.88022e-08
-6.9949e-09
-1.29327e-08
-3.47846e-09
-7.62034e-09
-1.2972e-09
-3.22101e-09
-2.33583e-10
-1.85277e-10
8.77113e-10
-5.50754e-10
-1.62548e-10
-2.42956e-09
2.56068e-09
-5.82881e-09
7.41934e-09
-1.08961e-08
1.37363e-08
-1.77321e-08
2.10019e-08
-2.63918e-08
2.88092e-08
-3.6888e-08
3.68359e-08
-4.91954e-08
4.48303e-08
-6.32558e-08
5.25975e-08
-7.89832e-08
5.99879e-08
-9.62684e-08
6.6888e-08
-1.14984e-07
7.32132e-08
-1.34987e-07
7.89021e-08
-1.56126e-07
8.39115e-08
-1.78239e-07
8.82132e-08
-2.0116e-07
9.17908e-08
-2.2472e-07
9.46375e-08
-2.4875e-07
9.67545e-08
-2.73078e-07
9.81491e-08
-2.97539e-07
9.88339e-08
-3.21968e-07
9.88255e-08
-3.46203e-07
9.81441e-08
-3.7009e-07
9.68127e-08
-3.93478e-07
9.48566e-08
-4.16224e-07
9.23029e-08
-4.38189e-07
8.91805e-08
-4.59243e-07
8.55193e-08
-4.79264e-07
8.13505e-08
-4.98135e-07
7.67063e-08
-5.15749e-07
7.16195e-08
-5.32007e-07
6.61238e-08
-5.46816e-07
6.02536e-08
-5.60096e-07
5.40437e-08
-5.7177e-07
4.75298e-08
-5.81775e-07
4.0748e-08
-5.90054e-07
3.37351e-08
-5.9656e-07
2.65284e-08
-6.01255e-07
1.91658e-08
-6.04112e-07
1.16859e-08
-6.05111e-07
4.12771e-09
-6.04243e-07
-3.46899e-09
-6.0151e-07
-1.1064e-08
-5.96922e-07
-1.86164e-08
-5.905e-07
-2.60849e-08
-5.82276e-07
-3.34279e-08
-5.72291e-07
-4.06031e-08
-5.60595e-07
-4.75683e-08
-5.47252e-07
-5.42809e-08
-5.32334e-07
-6.06985e-08
-5.15921e-07
-6.67787e-08
-4.98108e-07
-7.24795e-08
-4.78995e-07
-7.77595e-08
-4.58696e-07
-8.2578e-08
-4.3733e-07
-8.68955e-08
-4.15028e-07
-9.06737e-08
-3.91929e-07
-9.38761e-08
-3.68179e-07
-9.64682e-08
-3.43932e-07
-9.84177e-08
-3.19349e-07
-9.96954e-08
-2.94595e-07
-1.00275e-07
-2.69842e-07
-1.00135e-07
-2.45263e-07
-9.92574e-08
-2.21035e-07
-9.76291e-08
-1.97337e-07
-9.52434e-08
-1.74342e-07
-9.21003e-08
-1.52227e-07
-8.82075e-08
-1.31157e-07
-8.35819e-08
-1.11294e-07
-7.82514e-08
-9.27892e-08
-7.22566e-08
-7.57775e-08
-6.56535e-08
-6.03789e-08
-5.85168e-08
-4.66912e-08
-5.09442e-08
-3.47867e-08
-4.30613e-08
-2.47078e-08
-3.50283e-08
-1.64613e-08
-2.70486e-08
-1.00149e-08
-1.93791e-08
-5.29231e-09
-1.23429e-08
-2.17063e-09
-6.34269e-09
-4.79007e-10
-1.87688e-09
3.98109e-10
-8.0618e-10
6.43622e-10
-3.35191e-09
5.1064e-09
-7.75532e-09
1.18228e-08
-1.41088e-08
2.00897e-08
-2.24711e-08
2.93642e-08
-3.28655e-08
3.92037e-08
-4.52801e-08
4.92505e-08
-5.96698e-08
5.922e-08
-7.596e-08
6.88877e-08
-9.405e-08
7.80778e-08
-1.13817e-07
8.66549e-08
-1.3512e-07
9.45163e-08
-1.57804e-07
1.01586e-07
-1.81701e-07
1.07809e-07
-2.06638e-07
1.1315e-07
-2.32433e-07
1.17586e-07
-2.58902e-07
1.21107e-07
-2.8586e-07
1.23713e-07
-3.13122e-07
1.25411e-07
-3.40506e-07
1.26217e-07
-3.6783e-07
1.2615e-07
-3.9492e-07
1.25234e-07
-4.21604e-07
1.23497e-07
-4.47717e-07
1.2097e-07
-4.73102e-07
1.17688e-07
-4.97607e-07
1.13686e-07
-5.21089e-07
1.09001e-07
-5.43411e-07
1.03673e-07
-5.64446e-07
9.77416e-08
-5.84076e-07
9.12493e-08
-6.0219e-07
8.42383e-08
-6.18689e-07
7.6752e-08
-6.3348e-07
6.88348e-08
-6.46482e-07
6.05319e-08
-6.57623e-07
5.18891e-08
-6.66841e-07
4.29532e-08
-6.74084e-07
3.37716e-08
-6.79311e-07
2.43926e-08
-6.8249e-07
1.48652e-08
-6.83602e-07
5.23896e-09
-6.82635e-07
-4.43554e-09
-6.79592e-07
-1.41072e-08
-6.74484e-07
-2.37241e-08
-6.67335e-07
-3.32339e-08
-6.58179e-07
-4.25837e-08
-6.47062e-07
-5.172e-08
-6.34041e-07
-6.05893e-08
-6.19185e-07
-6.91377e-08
-6.02572e-07
-7.73115e-08
-5.84293e-07
-8.50571e-08
-5.64451e-07
-9.23217e-08
-5.43158e-07
-9.90528e-08
-5.20537e-07
-1.05199e-07
-4.9672e-07
-1.10712e-07
-4.71853e-07
-1.15542e-07
-4.46086e-07
-1.19643e-07
-4.1958e-07
-1.22974e-07
-3.92505e-07
-1.25493e-07
-3.65037e-07
-1.27164e-07
-3.37356e-07
-1.27955e-07
-3.09652e-07
-1.2784e-07
-2.82113e-07
-1.26796e-07
-2.54933e-07
-1.24809e-07
-2.28305e-07
-1.21871e-07
-2.02423e-07
-1.17983e-07
-1.77473e-07
-1.13157e-07
-1.53641e-07
-1.07414e-07
-1.311e-07
-1.00792e-07
-1.10016e-07
-9.33408e-08
-9.05382e-08
-8.51315e-08
-7.27987e-08
-7.62563e-08
-5.69089e-08
-6.68339e-08
-4.29553e-08
-5.70149e-08
-3.09953e-08
-4.69883e-08
-2.10542e-08
-3.69897e-08
-1.31223e-08
-2.7311e-08
-7.15234e-09
-1.83129e-08
-3.05985e-09
-1.04352e-08
-7.25017e-10
-4.21171e-09
-3.26909e-10
-1.05606e-09
1.6997e-09
-4.26644e-09
8.31675e-09
-9.67975e-09
1.72361e-08
-1.73328e-08
2.77427e-08
-2.724e-08
3.92715e-08
-3.93892e-08
5.13529e-08
-5.37401e-08
6.36014e-08
-7.02245e-08
7.57043e-08
-8.8748e-08
8.74112e-08
-1.09193e-07
9.8523e-08
-1.31422e-07
1.08884e-07
-1.55279e-07
1.18373e-07
-1.80595e-07
1.26902e-07
-2.0719e-07
1.34404e-07
-2.34876e-07
1.40835e-07
-2.63457e-07
1.46167e-07
-2.92736e-07
1.50386e-07
-3.22514e-07
1.53491e-07
-3.52592e-07
1.55489e-07
-3.82773e-07
1.56398e-07
-4.12862e-07
1.56239e-07
-4.42671e-07
1.55043e-07
-4.72015e-07
1.52841e-07
-5.00716e-07
1.49671e-07
-5.28603e-07
1.45575e-07
-5.55511e-07
1.40594e-07
-5.81287e-07
1.34776e-07
-6.05782e-07
1.28168e-07
-6.28859e-07
1.20819e-07
-6.50389e-07
1.12779e-07
-6.70253e-07
1.04102e-07
-6.88342e-07
9.48408e-08
-7.04557e-07
8.50494e-08
-7.18809e-07
7.47836e-08
-7.3102e-07
6.41e-08
-7.41122e-07
5.30561e-08
-7.49061e-07
4.17102e-08
-7.5479e-07
3.01218e-08
-7.58276e-07
1.83512e-08
-7.59497e-07
6.45974e-09
-7.58442e-07
-5.49058e-09
-7.55112e-07
-1.74368e-08
-7.49521e-07
-2.9315e-08
-7.41694e-07
-4.10609e-08
-7.31669e-07
-5.26094e-08
-7.19494e-07
-6.38948e-08
-7.05232e-07
-7.48514e-08
-6.88956e-07
-8.5413e-08
-6.70754e-07
-9.55139e-08
-6.50723e-07
-1.05088e-07
-6.28973e-07
-1.14072e-07
-6.05626e-07
-1.22399e-07
-5.80816e-07
-1.3001e-07
-5.54686e-07
-1.36841e-07
-5.27391e-07
-1.42836e-07
-4.99097e-07
-1.47938e-07
-4.69976e-07
-1.52095e-07
-4.40211e-07
-1.55258e-07
-4.09991e-07
-1.57383e-07
-3.79514e-07
-1.58433e-07
-3.48981e-07
-1.58373e-07
-3.18597e-07
-1.5718e-07
-2.88569e-07
-1.54836e-07
-2.59107e-07
-1.51333e-07
-2.30417e-07
-1.46673e-07
-2.02703e-07
-1.40871e-07
-1.76163e-07
-1.33955e-07
-1.50985e-07
-1.25969e-07
-1.27349e-07
-1.16977e-07
-1.05418e-07
-1.07063e-07
-8.53379e-08
-9.63359e-08
-6.72364e-08
-8.49355e-08
-5.12154e-08
-7.30359e-08
-3.73511e-08
-6.08526e-08
-2.56907e-08
-4.86502e-08
-1.62504e-08
-3.67513e-08
-9.0161e-09
-2.55472e-08
-3.94409e-09
-1.55072e-08
-9.66281e-10
-7.18952e-09
-1.29319e-09
-1.29804e-09
2.99775e-09
-5.16206e-09
1.21808e-08
-1.15774e-08
2.36514e-08
-2.0527e-08
3.66924e-08
-3.19807e-08
5.07251e-08
-4.58889e-08
6.52612e-08
-6.21804e-08
7.98929e-08
-8.07611e-08
9.42851e-08
-1.01515e-07
1.08165e-07
-1.24305e-07
1.21313e-07
-1.48977e-07
1.33556e-07
-1.7536e-07
1.44756e-07
-2.0327e-07
1.54812e-07
-2.32513e-07
1.63647e-07
-2.62887e-07
1.71209e-07
-2.94184e-07
1.77464e-07
-3.26193e-07
1.82395e-07
-3.58702e-07
1.86e-07
-3.91499e-07
1.88287e-07
-4.24375e-07
1.89273e-07
-4.57122e-07
1.88986e-07
-4.89538e-07
1.87459e-07
-5.21428e-07
1.8473e-07
-5.526e-07
1.80844e-07
-5.82873e-07
1.75847e-07
-6.12071e-07
1.69793e-07
-6.40029e-07
1.62734e-07
-6.6659e-07
1.54728e-07
-6.91605e-07
1.45834e-07
-7.14938e-07
1.36112e-07
-7.36461e-07
1.25625e-07
-7.56058e-07
1.14437e-07
-7.73621e-07
1.02613e-07
-7.89058e-07
9.022e-08
-8.02283e-07
7.73254e-08
-8.13226e-07
6.39986e-08
-8.21825e-07
5.03097e-08
-8.28033e-07
3.63301e-08
-8.31814e-07
2.21322e-08
-8.33144e-07
7.78959e-09
-8.32012e-07
-6.62315e-09
-8.28418e-07
-2.10304e-08
-8.22377e-07
-3.53557e-08
-8.13917e-07
-4.95216e-08
-8.03076e-07
-6.34502e-08
-7.89908e-07
-7.70627e-08
-7.74479e-07
-9.02804e-08
-7.56868e-07
-1.03024e-07
-7.37167e-07
-1.15215e-07
-7.1548e-07
-1.26775e-07
-6.91927e-07
-1.37625e-07
-6.66635e-07
-1.47691e-07
-6.39749e-07
-1.56896e-07
-6.11421e-07
-1.65169e-07
-5.81816e-07
-1.72441e-07
-5.51111e-07
-1.78643e-07
-5.1949e-07
-1.83715e-07
-4.87149e-07
-1.87599e-07
-4.54289e-07
-1.90243e-07
-4.2112e-07
-1.91602e-07
-3.87857e-07
-1.91637e-07
-3.54718e-07
-1.90319e-07
-3.21927e-07
-1.87628e-07
-2.89703e-07
-1.83556e-07
-2.5827e-07
-1.78106e-07
-2.27844e-07
-1.71297e-07
-1.98637e-07
-1.63161e-07
-1.70854e-07
-1.53753e-07
-1.44685e-07
-1.43146e-07
-1.20312e-07
-1.31437e-07
-9.78943e-08
-1.18753e-07
-7.75769e-08
-1.05253e-07
-5.94803e-08
-9.11324e-08
-4.37017e-08
-7.66312e-08
-3.03124e-08
-6.20394e-08
-1.93579e-08
-4.77058e-08
-1.08583e-08
-3.40467e-08
-4.81186e-09
-2.15537e-08
-1.20025e-09
-1.08011e-08
-2.49343e-09
-1.53124e-09
4.52901e-09
-6.03334e-09
1.66828e-08
-1.34347e-08
3.10527e-08
-2.36676e-08
4.69253e-08
-3.66577e-08
6.37152e-08
-5.23177e-08
8.09212e-08
-7.0544e-08
9.81192e-08
-9.12149e-08
1.14956e-07
-1.14191e-07
1.31141e-07
-1.39313e-07
1.46436e-07
-1.6641e-07
1.60652e-07
-1.95294e-07
1.7364e-07
-2.25765e-07
1.85283e-07
-2.57615e-07
1.95497e-07
-2.90628e-07
2.04222e-07
-3.24584e-07
2.1142e-07
-3.59259e-07
2.1707e-07
-3.94428e-07
2.21169e-07
-4.29866e-07
2.23725e-07
-4.65352e-07
2.2476e-07
-5.00668e-07
2.24302e-07
-5.356e-07
2.22391e-07
-5.6994e-07
2.1907e-07
-6.03488e-07
2.14392e-07
-6.36051e-07
2.0841e-07
-6.67444e-07
2.01186e-07
-6.97491e-07
1.92781e-07
-7.26026e-07
1.83264e-07
-7.52893e-07
1.72702e-07
-7.77947e-07
1.61166e-07
-8.01053e-07
1.48731e-07
-8.22088e-07
1.35472e-07
-8.40939e-07
1.21464e-07
-8.57505e-07
1.06787e-07
-8.71699e-07
9.15196e-08
-8.83445e-07
7.57441e-08
-8.92678e-07
5.95427e-08
-8.99347e-07
4.29996e-08
-9.03415e-07
2.61999e-08
-9.04856e-07
9.23021e-09
-9.03657e-07
-7.82166e-09
-8.99821e-07
-2.48668e-08
-8.93361e-07
-4.18151e-08
-8.84307e-07
-5.85758e-08
-8.727e-07
-7.5057e-08
-8.58597e-07
-9.11664e-08
-8.42066e-07
-1.06811e-07
-8.23191e-07
-1.21899e-07
-8.0207e-07
-1.36336e-07
-7.78813e-07
-1.50032e-07
-7.53544e-07
-1.62894e-07
-7.26401e-07
-1.74834e-07
-6.97534e-07
-1.85764e-07
-6.67105e-07
-1.95599e-07
-6.35288e-07
-2.04257e-07
-6.0227e-07
-2.11662e-07
-5.68246e-07
-2.1774e-07
-5.33421e-07
-2.22424e-07
-4.9801e-07
-2.25654e-07
-4.62233e-07
-2.27378e-07
-4.26319e-07
-2.27551e-07
-3.90499e-07
-2.26139e-07
-3.55007e-07
-2.2312e-07
-3.20079e-07
-2.18484e-07
-2.85951e-07
-2.12235e-07
-2.52853e-07
-2.04395e-07
-2.21011e-07
-1.95003e-07
-1.90644e-07
-1.8412e-07
-1.6196e-07
-1.7183e-07
-1.35152e-07
-1.58244e-07
-1.10401e-07
-1.43504e-07
-8.78685e-08
-1.27786e-07
-6.76951e-08
-1.11306e-07
-5.00012e-08
-9.43251e-08
-3.48844e-08
-7.71561e-08
-2.24207e-08
-6.01695e-08
-1.26654e-08
-4.3802e-08
-5.65757e-09
-2.85615e-08
-1.42598e-09
-1.50327e-08
-3.91941e-09
-1.75569e-09
6.2847e-09
-6.87838e-09
2.18055e-08
-1.52454e-08
3.94198e-08
-2.67421e-08
5.84219e-08
-4.12513e-08
7.82245e-08
-5.86484e-08
9.83183e-08
-7.87968e-08
1.18268e-07
-1.01546e-07
1.37705e-07
-1.26731e-07
1.56325e-07
-1.54172e-07
1.73877e-07
-1.83676e-07
1.90156e-07
-2.15038e-07
2.05002e-07
-2.48042e-07
2.18288e-07
-2.82466e-07
2.29921e-07
-3.18079e-07
2.39835e-07
-3.54648e-07
2.47988e-07
-3.91936e-07
2.54358e-07
-4.29705e-07
2.58938e-07
-4.67721e-07
2.61741e-07
-5.0575e-07
2.62788e-07
-5.43562e-07
2.62114e-07
-5.80934e-07
2.59763e-07
-6.17647e-07
2.55784e-07
-6.53492e-07
2.50236e-07
-6.88265e-07
2.43183e-07
-7.21772e-07
2.34693e-07
-7.53831e-07
2.24839e-07
-7.84265e-07
2.13698e-07
-8.12912e-07
2.01349e-07
-8.3962e-07
1.87874e-07
-8.64246e-07
1.73357e-07
-8.8666e-07
1.57886e-07
-9.06747e-07
1.4155e-07
-9.24399e-07
1.24439e-07
-9.39525e-07
1.06645e-07
-9.52043e-07
8.82628e-08
-9.61888e-07
6.93877e-08
-9.69006e-07
5.0117e-08
-9.73355e-07
3.05495e-08
-9.7491e-07
1.07854e-08
-9.73658e-07
-9.07386e-09
-9.696e-07
-2.89252e-08
-9.6275e-07
-4.86646e-08
-9.53139e-07
-6.81868e-08
-9.40811e-07
-8.73857e-08
-9.25822e-07
-1.06155e-07
-9.08248e-07
-1.24386e-07
-8.88173e-07
-1.41973e-07
-8.657e-07
-1.58809e-07
-8.40946e-07
-1.74786e-07
-8.14039e-07
-1.89801e-07
-7.85123e-07
-2.0375e-07
-7.54356e-07
-2.16531e-07
-7.21907e-07
-2.28047e-07
-6.8796e-07
-2.38204e-07
-6.5271e-07
-2.46913e-07
-6.1636e-07
-2.54089e-07
-5.79128e-07
-2.59657e-07
-5.41237e-07
-2.63545e-07
-5.0292e-07
-2.65695e-07
-4.64417e-07
-2.66054e-07
-4.25971e-07
-2.64585e-07
-3.87829e-07
-2.61262e-07
-3.5024e-07
-2.56072e-07
-3.13452e-07
-2.49023e-07
-2.77711e-07
-2.40136e-07
-2.43257e-07
-2.29457e-07
-2.10323e-07
-2.17054e-07
-1.79134e-07
-2.03019e-07
-1.49901e-07
-1.87478e-07
-1.22821e-07
-1.70584e-07
-9.80757e-08
-1.52531e-07
-7.58289e-08
-1.33553e-07
-5.62247e-08
-1.13929e-07
-3.93886e-08
-9.39923e-08
-2.54273e-08
-7.41309e-08
-1.44314e-08
-5.47979e-08
-6.47937e-09
-3.65135e-08
-1.64348e-09
-1.98686e-08
-5.56289e-09
-1.97186e-09
8.25655e-09
-7.69742e-09
2.75311e-08
-1.70083e-08
4.87308e-08
-2.97461e-08
7.11596e-08
-4.57533e-08
9.42316e-08
-6.48682e-08
1.17433e-07
-8.69215e-08
1.40321e-07
-1.11733e-07
1.62517e-07
-1.39112e-07
1.83704e-07
-1.68855e-07
2.0362e-07
-2.00749e-07
2.2205e-07
-2.34569e-07
2.38822e-07
-2.70083e-07
2.53802e-07
-3.07053e-07
2.66891e-07
-3.45233e-07
2.78016e-07
-3.84377e-07
2.87132e-07
-4.24236e-07
2.94216e-07
-4.64559e-07
2.99262e-07
-5.05101e-07
3.02283e-07
-5.45617e-07
3.03304e-07
-5.85867e-07
3.02364e-07
-6.25617e-07
2.99512e-07
-6.64639e-07
2.94806e-07
-7.02715e-07
2.88312e-07
-7.39632e-07
2.801e-07
-7.75189e-07
2.7025e-07
-8.09194e-07
2.58845e-07
-8.41466e-07
2.4597e-07
-8.71833e-07
2.31716e-07
-9.00137e-07
2.16178e-07
-9.26231e-07
1.99451e-07
-9.49979e-07
1.81634e-07
-9.71258e-07
1.6283e-07
-9.8996e-07
1.43141e-07
-1.00599e-06
1.22672e-07
-1.01926e-06
1.01532e-07
-1.0297e-06
7.98284e-08
-1.03725e-06
5.76734e-08
-1.04188e-06
3.51794e-08
-1.04356e-06
1.24607e-08
-1.04227e-06
-1.03668e-08
-1.038e-06
-3.31856e-08
-1.03079e-06
-5.58769e-08
-1.02066e-06
-7.83208e-08
-1.00765e-06
-1.00396e-07
-9.91821e-07
-1.21981e-07
-9.73253e-07
-1.42954e-07
-9.52035e-07
-1.63192e-07
-9.28271e-07
-1.82573e-07
-9.02082e-07
-2.00976e-07
-8.73602e-07
-2.18281e-07
-8.42981e-07
-2.3437e-07
-8.10383e-07
-2.49129e-07
-7.75984e-07
-2.62446e-07
-7.39975e-07
-2.74213e-07
-7.02558e-07
-2.8433e-07
-6.63948e-07
-2.927e-07
-6.24369e-07
-2.99235e-07
-5.84056e-07
-3.03858e-07
-5.43253e-07
-3.06498e-07
-5.02209e-07
-3.07099e-07
-4.61179e-07
-3.05615e-07
-4.20424e-07
-3.02017e-07
-3.80206e-07
-2.96291e-07
-3.40784e-07
-2.88444e-07
-3.02421e-07
-2.785e-07
-2.6537e-07
-2.66508e-07
-2.29881e-07
-2.52542e-07
-1.96195e-07
-2.36706e-07
-1.64541e-07
-2.19132e-07
-1.35136e-07
-1.99989e-07
-1.08183e-07
-1.79484e-07
-8.38687e-08
-1.57867e-07
-6.23626e-08
-1.35435e-07
-4.38185e-08
-1.12536e-07
-2.83745e-08
-8.95749e-08
-1.61557e-08
-6.70168e-08
-7.27779e-09
-4.53914e-08
-1.8533e-09
-2.52931e-08
-7.4162e-09
-2.18049e-09
1.0437e-08
-8.49204e-09
3.38427e-08
-1.87251e-08
5.89638e-08
-3.26806e-08
8.51152e-08
-5.01628e-08
1.11714e-07
-7.09744e-08
1.38245e-07
-9.49132e-08
1.6426e-07
-1.2177e-07
1.89373e-07
-1.51326e-07
2.1326e-07
-1.83355e-07
2.35649e-07
-2.17621e-07
2.56316e-07
-2.53881e-07
2.75082e-07
-2.91884e-07
2.91806e-07
-3.31376e-07
3.06383e-07
-3.72097e-07
3.18737e-07
-4.13786e-07
3.28821e-07
-4.56181e-07
3.36611e-07
-4.9902e-07
3.42102e-07
-5.42046e-07
3.45309e-07
-5.85004e-07
3.46262e-07
-6.27643e-07
3.45004e-07
-6.69721e-07
3.4159e-07
-7.11e-07
3.36086e-07
-7.51254e-07
3.28565e-07
-7.90261e-07
3.19108e-07
-8.27814e-07
3.07803e-07
-8.63713e-07
2.94743e-07
-8.9777e-07
2.80026e-07
-9.29808e-07
2.63754e-07
-9.59662e-07
2.46032e-07
-9.8718e-07
2.26969e-07
-1.01222e-06
2.06677e-07
-1.03466e-06
1.85269e-07
-1.05438e-06
1.62863e-07
-1.07129e-06
1.39577e-07
-1.08529e-06
1.15533e-07
-1.09631e-06
9.08532e-08
-1.1043e-06
6.56634e-08
-1.10922e-06
4.00906e-08
-1.11102e-06
1.42637e-08
-1.1097e-06
-1.16866e-08
-1.10526e-06
-3.76279e-08
-1.09771e-06
-6.34262e-08
-1.08708e-06
-8.89462e-08
-1.07343e-06
-1.14052e-07
-1.0568e-06
-1.38605e-07
-1.03729e-06
-1.62469e-07
-1.01498e-06
-1.85504e-07
-9.89973e-07
-2.07575e-07
-9.62405e-07
-2.28544e-07
-9.3241e-07
-2.48275e-07
-9.00143e-07
-2.66637e-07
-8.65772e-07
-2.835e-07
-8.29481e-07
-2.98737e-07
-7.91467e-07
-3.12228e-07
-7.51939e-07
-3.23857e-07
-7.11121e-07
-3.33518e-07
-6.69245e-07
-3.41111e-07
-6.26556e-07
-3.46547e-07
-5.83306e-07
-3.49747e-07
-5.39758e-07
-3.50647e-07
-4.96177e-07
-3.49195e-07
-4.52837e-07
-3.45357e-07
-4.1001e-07
-3.39118e-07
-3.67973e-07
-3.30481e-07
-3.27e-07
-3.19473e-07
-2.87362e-07
-3.06146e-07
-2.49324e-07
-2.9058e-07
-2.13145e-07
-2.72885e-07
-1.79073e-07
-2.53203e-07
-1.47347e-07
-2.31715e-07
-1.18191e-07
-2.0864e-07
-9.18147e-08
-1.84243e-07
-6.84159e-08
-1.58834e-07
-4.81763e-08
-1.32776e-07
-3.12652e-08
-1.06486e-07
-1.78409e-08
-8.04411e-08
-8.05486e-09
-5.51775e-08
-2.05631e-09
-3.12916e-08
-9.47251e-09
-2.38247e-09
1.28195e-08
-9.26458e-09
4.07248e-08
-2.03993e-08
7.00986e-08
-3.555e-08
1.00266e-07
-5.44845e-08
1.30648e-07
-7.69711e-08
1.60731e-07
-1.02775e-07
1.90064e-07
-1.31659e-07
2.18256e-07
-1.63375e-07
2.44977e-07
-1.97674e-07
2.69948e-07
-2.34296e-07
2.92939e-07
-2.72979e-07
3.13765e-07
-3.13454e-07
3.3228e-07
-3.55448e-07
3.48377e-07
-3.98688e-07
3.61976e-07
-4.42897e-07
3.7303e-07
-4.878e-07
3.81514e-07
-5.33125e-07
3.87427e-07
-5.78601e-07
3.90785e-07
-6.23964e-07
3.91624e-07
-6.68954e-07
3.89993e-07
-7.13318e-07
3.85954e-07
-7.56811e-07
3.79579e-07
-7.99198e-07
3.70951e-07
-8.40251e-07
3.60162e-07
-8.79755e-07
3.47307e-07
-9.17504e-07
3.32492e-07
-9.53304e-07
3.15826e-07
-9.86972e-07
2.97422e-07
-1.01834e-06
2.77399e-07
-1.04725e-06
2.55877e-07
-1.07355e-06
2.32981e-07
-1.09712e-06
2.0884e-07
-1.11784e-06
1.83582e-07
-1.13561e-06
1.57342e-07
-1.15033e-06
1.30253e-07
-1.16193e-06
1.02454e-07
-1.17035e-06
7.40849e-08
-1.17554e-06
4.52866e-08
-1.17748e-06
1.62034e-08
-1.17615e-06
-1.30187e-08
-1.17155e-06
-4.22321e-08
-1.16369e-06
-7.12872e-08
-1.1526e-06
-1.00033e-07
-1.13833e-06
-1.28317e-07
-1.12095e-06
-1.55987e-07
-1.10053e-06
-1.82888e-07
-1.07717e-06
-2.08866e-07
-1.05098e-06
-2.33768e-07