/*--------------------------------*- C++ -*----------------------------------*\
  =========                 |
  \\      /  F ield         | OpenFOAM: The Open Source CFD Toolbox
   \\    /   O peration     | Website:  https://openfoam.org
    \\  /    A nd           | Version:  7
     \\/     M anipulation  |
\*---------------------------------------------------------------------------*/
FoamFile
{
    version     2.0;
    format      ascii;
    class       volVectorField;
    location    "0.175";
    object      U;
}
// * * * * * * * * * * * * * * * * * * * * * * * * * * * * * * * * * * * * * //

dimensions      [0 1 -1 0 0 0 0];

internalField   nonuniform List<vector> 
6400
(
(7.24265e-06 -7.23514e-06 0)
(2.97613e-05 -1.44152e-05 0)
(5.9196e-05 -1.41464e-05 0)
(8.04346e-05 -9.70572e-06 0)
(8.52212e-05 -3.40291e-06 0)
(7.02976e-05 3.56592e-06 0)
(3.45497e-05 1.05812e-05 0)
(-2.19919e-05 1.73268e-05 0)
(-9.85681e-05 2.36383e-05 0)
(-0.000193992 2.94352e-05 0)
(-0.000306817 3.46817e-05 0)
(-0.000435446 3.93614e-05 0)
(-0.000578202 4.34729e-05 0)
(-0.000733365 4.70238e-05 0)
(-0.000899209 5.00242e-05 0)
(-0.00107402 5.24912e-05 0)
(-0.00125611 5.4442e-05 0)
(-0.00144383 5.5895e-05 0)
(-0.00163558 5.68682e-05 0)
(-0.0018298 5.73819e-05 0)
(-0.00202501 5.74574e-05 0)
(-0.00221976 5.71153e-05 0)
(-0.00241269 5.63757e-05 0)
(-0.00260248 5.52592e-05 0)
(-0.00278789 5.37862e-05 0)
(-0.00296775 5.19772e-05 0)
(-0.00314093 4.98524e-05 0)
(-0.0033064 4.7432e-05 0)
(-0.00346318 4.47361e-05 0)
(-0.00361034 4.17849e-05 0)
(-0.00374707 3.85974e-05 0)
(-0.00387256 3.51935e-05 0)
(-0.00398613 3.15935e-05 0)
(-0.00408713 2.78177e-05 0)
(-0.00417499 2.38863e-05 0)
(-0.00424921 1.98196e-05 0)
(-0.00430938 1.56385e-05 0)
(-0.00435514 1.13641e-05 0)
(-0.0043862 7.01765e-06 0)
(-0.00440237 2.62074e-06 0)
(-0.00440351 -1.80438e-06 0)
(-0.00438957 -6.23482e-06 0)
(-0.00436059 -1.06471e-05 0)
(-0.00431668 -1.50175e-05 0)
(-0.00425802 -1.9322e-05 0)
(-0.00418489 -2.35362e-05 0)
(-0.00409766 -2.76351e-05 0)
(-0.00399676 -3.15929e-05 0)
(-0.00388273 -3.53839e-05 0)
(-0.0037562 -3.89824e-05 0)
(-0.00361786 -4.23623e-05 0)
(-0.00346851 -4.54974e-05 0)
(-0.00330904 -4.83614e-05 0)
(-0.0031404 -5.09286e-05 0)
(-0.00296366 -5.31734e-05 0)
(-0.00277995 -5.50709e-05 0)
(-0.00259049 -5.65966e-05 0)
(-0.00239656 -5.77266e-05 0)
(-0.00219954 -5.84383e-05 0)
(-0.00200086 -5.87099e-05 0)
(-0.00180202 -5.85211e-05 0)
(-0.00160458 -5.78532e-05 0)
(-0.00141016 -5.66886e-05 0)
(-0.00122041 -5.50116e-05 0)
(-0.00103703 -5.28086e-05 0)
(-0.000861722 -5.00687e-05 0)
(-0.000696227 -4.67839e-05 0)
(-0.000542271 -4.29496e-05 0)
(-0.000401559 -3.85655e-05 0)
(-0.000275752 -3.36376e-05 0)
(-0.000166435 -2.8181e-05 0)
(-7.50652e-05 -2.22248e-05 0)
(-2.91069e-06 -1.58229e-05 0)
(4.90603e-05 -9.07251e-06 0)
(8.03531e-05 -2.1526e-06 0)
(9.12296e-05 4.60338e-06 0)
(8.31311e-05 1.05717e-05 0)
(5.96144e-05 1.45584e-05 0)
(2.91752e-05 1.43223e-05 0)
(6.86266e-06 6.86175e-06 0)
(1.44311e-05 -2.97505e-05 0)
(5.1452e-05 -5.13697e-05 0)
(8.95893e-05 -4.39399e-05 0)
(0.000103199 -1.89693e-05 0)
(7.65647e-05 1.54255e-05 0)
(1.85986e-06 5.42145e-05 0)
(-0.000124622 9.43235e-05 0)
(-0.000303782 0.000133861 0)
(-0.000534579 0.000171668 0)
(-0.000814642 0.000207033 0)
(-0.00114073 0.000239518 0)
(-0.00150905 0.000268862 0)
(-0.00191539 0.000294924 0)
(-0.00235538 0.000317635 0)
(-0.0028245 0.000336985 0)
(-0.00331818 0.000353003 0)
(-0.0038319 0.000365746 0)
(-0.00436117 0.000375291 0)
(-0.00490159 0.000381729 0)
(-0.0054489 0.000385162 0)
(-0.00599895 0.000385703 0)
(-0.00654774 0.00038347 0)
(-0.00709142 0.000378584 0)
(-0.00762633 0.00037117 0)
(-0.00814895 0.000361358 0)
(-0.00865597 0.000349276 0)
(-0.00914422 0.000335056 0)
(-0.00961077 0.00031883 0)
(-0.0100528 0.000300732 0)
(-0.0104678 0.000280894 0)
(-0.0108533 0.000259451 0)
(-0.0112071 0.000236538 0)
(-0.0115273 0.000212292 0)
(-0.0118119 0.000186851 0)
(-0.0120595 0.000160355 0)
(-0.0122685 0.000132944 0)
(-0.0124379 0.000104762 0)
(-0.0125665 7.59549e-05 0)
(-0.0126536 4.66698e-05 0)
(-0.0126987 1.70566e-05 0)
(-0.0127014 -1.27313e-05 0)
(-0.0126615 -4.25377e-05 0)
(-0.0125792 -7.22035e-05 0)
(-0.0124548 -0.000101567 0)
(-0.0122889 -0.000130466 0)
(-0.0120822 -0.000158732 0)
(-0.0118358 -0.000186196 0)
(-0.011551 -0.000212688 0)
(-0.0112293 -0.000238036 0)
(-0.0108724 -0.000262069 0)
(-0.0104824 -0.000284612 0)
(-0.0100616 -0.000305495 0)
(-0.00961235 -0.000324544 0)
(-0.00913748 -0.000341594 0)
(-0.00863994 -0.000356478 0)
(-0.00812292 -0.000369036 0)
(-0.00758982 -0.000379114 0)
(-0.00704428 -0.000386562 0)
(-0.00649011 -0.00039124 0)
(-0.00593131 -0.000393017 0)
(-0.00537204 -0.000391775 0)
(-0.00481662 -0.000387406 0)
(-0.0042695 -0.000379819 0)
(-0.00373519 -0.000368937 0)
(-0.00321833 -0.000354705 0)
(-0.00272355 -0.000337092 0)
(-0.00225548 -0.000316096 0)
(-0.00181871 -0.000291749 0)
(-0.00141768 -0.000264129 0)
(-0.00105664 -0.000233375 0)
(-0.000739511 -0.000199708 0)
(-0.000469763 -0.000163466 0)
(-0.000250183 -0.000125166 0)
(-8.26008e-05 -8.55974e-05 0)
(3.25542e-05 -4.59859e-05 0)
(9.68647e-05 -8.26463e-06 0)
(0.000114703 2.44859e-05 0)
(9.4521e-05 4.73234e-05 0)
(5.24616e-05 5.24217e-05 0)
(1.43139e-05 2.91501e-05 0)
(1.4261e-05 -5.92872e-05 0)
(4.44351e-05 -8.96408e-05 0)
(6.10061e-05 -6.01846e-05 0)
(3.52037e-05 6.98719e-06 0)
(-5.12878e-05 9.64695e-05 0)
(-0.000208694 0.000197615 0)
(-0.000442324 0.000303196 0)
(-0.000753888 0.000408379 0)
(-0.00114234 0.000509945 0)
(-0.00160468 0.000605751 0)
(-0.00213649 0.000694387 0)
(-0.00273239 0.00077494 0)
(-0.00338631 0.000846844 0)
(-0.00409176 0.000909775 0)
(-0.00484197 0.00096359 0)
(-0.00563006 0.00100828 0)
(-0.00644908 0.00104391 0)
(-0.00729214 0.00107065 0)
(-0.00815243 0.00108871 0)
(-0.00902329 0.00109832 0)
(-0.00989825 0.00109979 0)
(-0.010771 0.0010934 0)
(-0.0116356 0.00107949 0)
(-0.0124861 0.00105839 0)
(-0.013317 0.00103046 0)
(-0.0141231 0.000996055 0)
(-0.0148994 0.000955541 0)
(-0.0156411 0.00090929 0)
(-0.0163438 0.000857677 0)
(-0.0170035 0.000801083 0)
(-0.0176163 0.000739891 0)
(-0.0181786 0.000674491 0)
(-0.0186874 0.000605273 0)
(-0.0191397 0.000532636 0)
(-0.0195329 0.000456979 0)
(-0.0198649 0.00037871 0)
(-0.0201337 0.000298243 0)
(-0.0203377 0.000215998 0)
(-0.0204757 0.000132399 0)
(-0.0205468 4.78804e-05 0)
(-0.0205504 -3.7117e-05 0)
(-0.0204865 -0.000122144 0)
(-0.0203551 -0.000206746 0)
(-0.0201568 -0.00029046 0)
(-0.0198924 -0.000372815 0)
(-0.0195634 -0.000453336 0)
(-0.0191714 -0.00053154 0)
(-0.0187184 -0.000606943 0)
(-0.0182068 -0.000679057 0)
(-0.0176395 -0.000747393 0)
(-0.0170197 -0.000811463 0)
(-0.016351 -0.000870781 0)
(-0.0156373 -0.000924867 0)
(-0.014883 -0.000973249 0)
(-0.0140928 -0.00101547 0)
(-0.0132717 -0.00105107 0)
(-0.0124252 -0.00107964 0)
(-0.0115588 -0.00110077 0)
(-0.0106787 -0.00111406 0)
(-0.00979116 -0.00111918 0)
(-0.00890261 -0.0011158 0)
(-0.00801984 -0.00110365 0)
(-0.00714975 -0.0010825 0)
(-0.00629938 -0.00105218 0)
(-0.00547585 -0.00101258 0)
(-0.00468629 -0.000963662 0)
(-0.00393777 -0.000905493 0)
(-0.00323721 -0.000838249 0)
(-0.00259126 -0.000762249 0)
(-0.00200621 -0.000678007 0)
(-0.00148773 -0.000586284 0)
(-0.0010407 -0.000488194 0)
(-0.000668908 -0.00038534 0)
(-0.00037459 -0.000280037 0)
(-0.000157928 -0.000175645 0)
(-1.63064e-05 -7.707e-05 0)
(5.65079e-05 8.50032e-06 0)
(7.15193e-05 7.06541e-05 0)
(4.77796e-05 9.45869e-05 0)
(1.46304e-05 5.96407e-05 0)
(1.00174e-05 -8.09856e-05 0)
(2.02694e-05 -0.000103993 0)
(-4.55343e-06 -3.47431e-05 0)
(-9.11572e-05 9.40357e-05 0)
(-0.000257663 0.000259604 0)
(-0.00051499 0.00044543 0)
(-0.000869051 0.00063966 0)
(-0.00132179 0.000833946 0)
(-0.00187205 0.00102244 0)
(-0.00251631 0.00120106 0)
(-0.00324927 0.00136701 0)
(-0.00406435 0.00151838 0)
(-0.00495402 0.00165392 0)
(-0.00591011 0.00177287 0)
(-0.00692404 0.0018748 0)
(-0.00798695 0.00195957 0)
(-0.0090899 0.00202725 0)
(-0.0102239 0.00207803 0)
(-0.0113801 0.00211226 0)
(-0.0125498 0.00213034 0)
(-0.0137245 0.00213279 0)
(-0.0148957 0.00212014 0)
(-0.0160556 0.002093 0)
(-0.0171964 0.00205199 0)
(-0.0183108 0.00199777 0)
(-0.0193917 0.00193102 0)
(-0.0204325 0.00185243 0)
(-0.0214269 0.00176272 0)
(-0.0223689 0.00166261 0)
(-0.0232531 0.00155284 0)
(-0.0240744 0.00143413 0)
(-0.024828 0.00130726 0)
(-0.0255096 0.00117298 0)
(-0.0261155 0.00103205 0)
(-0.0266422 0.000885279 0)
(-0.0270867 0.000733443 0)
(-0.0274464 0.000577352 0)
(-0.0277193 0.000417824 0)
(-0.0279037 0.00025569 0)
(-0.0279983 9.1795e-05 0)
(-0.0280026 -7.30023e-05 0)
(-0.0279162 -0.000237828 0)
(-0.0277395 -0.000401797 0)
(-0.0274732 -0.00056401 0)
(-0.0271184 -0.000723554 0)
(-0.026677 -0.000879506 0)
(-0.0261513 -0.00103093 0)
(-0.0255439 -0.0011769 0)
(-0.0248582 -0.00131647 0)
(-0.0240979 -0.00144869 0)
(-0.0232673 -0.00157263 0)
(-0.0223713 -0.00168735 0)
(-0.0214152 -0.00179194 0)
(-0.0204047 -0.0018855 0)
(-0.0193461 -0.00196714 0)
(-0.0182461 -0.00203602 0)
(-0.017112 -0.00209133 0)
(-0.0159511 -0.00213231 0)
(-0.0147716 -0.00215824 0)
(-0.0135817 -0.00216847 0)
(-0.01239 -0.00216243 0)
(-0.0112054 -0.00213962 0)
(-0.0100369 -0.00209966 0)
(-0.00889375 -0.00204225 0)
(-0.00778523 -0.00196725 0)
(-0.00672056 -0.00187468 0)
(-0.00570888 -0.00176475 0)
(-0.00475904 -0.00163789 0)
(-0.00387951 -0.00149483 0)
(-0.00307818 -0.0013367 0)
(-0.00236212 -0.00116509 0)
(-0.00173729 -0.000982261 0)
(-0.00120822 -0.000791347 0)
(-0.000777518 -0.000596716 0)
(-0.000445307 -0.000404437 0)
(-0.000208544 -0.000222966 0)
(-6.02401e-05 -6.40701e-05 0)
(1.15266e-05 5.60937e-05 0)
(2.59142e-05 0.000115633 0)
(1.08568e-05 8.35748e-05 0)
(3.98364e-06 -8.67572e-05 0)
(-1.31311e-05 -7.90048e-05 0)
(-9.2184e-05 5.04885e-05 0)
(-0.0002542 0.000260095 0)
(-0.000514985 0.00052047 0)
(-0.000884975 0.000809576 0)
(-0.00136973 0.00111104 0)
(-0.00197088 0.00141287 0)
(-0.00268683 0.00170637 0)
(-0.00351349 0.00198526 0)
(-0.00444476 0.00224506 0)
(-0.00547303 0.00248263 0)
(-0.00658957 0.00269582 0)
(-0.00778483 0.00288323 0)
(-0.00904868 0.00304407 0)
(-0.0103707 0.00317794 0)
(-0.0117401 0.00328482 0)
(-0.0131463 0.00336493 0)
(-0.0145785 0.00341871 0)
(-0.0160263 0.00344675 0)
(-0.0174792 0.00344979 0)
(-0.0189273 0.00342865 0)
(-0.0203607 0.00338425 0)
(-0.0217701 0.00331756 0)
(-0.0231465 0.00322961 0)
(-0.0244813 0.00312147 0)
(-0.0257663 0.00299425 0)
(-0.0269937 0.00284907 0)
(-0.0281564 0.0026871 0)
(-0.0292475 0.00250952 0)
(-0.0302609 0.00231751 0)
(-0.0311906 0.0021123 0)
(-0.0320315 0.00189512 0)
(-0.0327787 0.00166721 0)
(-0.0334282 0.00142985 0)
(-0.0339761 0.00118433 0)
(-0.0344194 0.000931946 0)
(-0.0347555 0.000674029 0)
(-0.0349823 0.000411928 0)
(-0.0350985 0.000147012 0)
(-0.0351032 -0.000119325 0)
(-0.034996 -0.000385672 0)
(-0.0347774 -0.000650592 0)
(-0.0344483 -0.000912632 0)
(-0.0340102 -0.00117032 0)
(-0.0334653 -0.00142216 0)
(-0.0328164 -0.00166666 0)
(-0.0320669 -0.00190231 0)
(-0.0312208 -0.00212759 0)
(-0.0302828 -0.002341 0)
(-0.0292583 -0.00254101 0)
(-0.028153 -0.00272616 0)
(-0.0269735 -0.00289496 0)
(-0.0257269 -0.00304598 0)
(-0.0244209 -0.00317783 0)
(-0.0230637 -0.00328916 0)
(-0.0216641 -0.0033787 0)
(-0.0202312 -0.00344524 0)
(-0.0187747 -0.00348767 0)
(-0.0173048 -0.00350499 0)
(-0.0158319 -0.00349632 0)
(-0.0143667 -0.00346092 0)
(-0.0129201 -0.00339821 0)
(-0.0115033 -0.00330782 0)
(-0.0101273 -0.00318959 0)
(-0.00880331 -0.00304366 0)
(-0.00754208 -0.00287045 0)
(-0.00635415 -0.00267079 0)
(-0.00524949 -0.00244599 0)
(-0.00423735 -0.00219796 0)
(-0.00332594 -0.00192937 0)
(-0.00252218 -0.00164389 0)
(-0.00183129 -0.00134649 0)
(-0.00125635 -0.00104388 0)
(-0.00079777 -0.000745079 0)
(-0.000452695 -0.000462214 0)
(-0.000214295 -0.000211565 0)
(-7.0938e-05 -1.47057e-05 0)
(-5.39793e-06 9.99888e-05 0)
(5.22009e-06 9.27632e-05 0)
(-2.69559e-06 -7.3413e-05 0)
(-5.10077e-05 -6.76699e-06 0)
(-0.000191974 0.000206008 0)
(-0.000438774 0.000516682 0)
(-0.000803484 0.000890376 0)
(-0.00129509 0.00130021 0)
(-0.00191809 0.00172563 0)
(-0.00267319 0.00215114 0)
(-0.00355807 0.00256517 0)
(-0.00456784 0.00295912 0)
(-0.00569557 0.00332669 0)
(-0.00693269 0.00366333 0)
(-0.00826938 0.00396586 0)
(-0.00969489 0.00423211 0)
(-0.0111978 0.00446077 0)
(-0.0127662 0.00465113 0)
(-0.014388 0.00480299 0)
(-0.0160508 0.00491657 0)
(-0.0177426 0.00499237 0)
(-0.0194511 0.00503116 0)
(-0.0211644 0.00503391 0)
(-0.022871 0.00500177 0)
(-0.0245595 0.00493597 0)
(-0.026219 0.00483791 0)
(-0.0278391 0.00470902 0)
(-0.0294097 0.00455084 0)
(-0.0309213 0.00436493 0)
(-0.032365 0.00415294 0)
(-0.0337322 0.00391652 0)
(-0.0350151 0.00365738 0)
(-0.0362063 0.00337726 0)
(-0.037299 0.00307792 0)
(-0.0382871 0.00276116 0)
(-0.0391651 0.0024288 0)
(-0.039928 0.00208268 0)
(-0.0405715 0.0017247 0)
(-0.041092 0.00135675 0)
(-0.0414865 0.000980775 0)
(-0.0417525 0.000598742 0)
(-0.0418885 0.00021265 0)
(-0.0418935 -0.000175469 0)
(-0.0417671 -0.000563554 0)
(-0.0415098 -0.000949515 0)
(-0.0411227 -0.00133123 0)
(-0.0406076 -0.00170657 0)
(-0.039967 -0.00207335 0)
(-0.0392043 -0.00242941 0)
(-0.0383233 -0.00277255 0)
(-0.037329 -0.00310058 0)
(-0.0362267 -0.0034113 0)
(-0.0350226 -0.00370256 0)
(-0.0337237 -0.00397218 0)
(-0.0323374 -0.00421807 0)
(-0.0308721 -0.00443815 0)
(-0.0293367 -0.00463043 0)
(-0.0277408 -0.00479299 0)
(-0.0260945 -0.004924 0)
(-0.0244086 -0.00502177 0)
(-0.0226942 -0.00508471 0)
(-0.020963 -0.00511143 0)
(-0.0192271 -0.00510071 0)
(-0.0174989 -0.00505154 0)
(-0.0157909 -0.00496317 0)
(-0.014116 -0.00483515 0)
(-0.0124867 -0.00466736 0)
(-0.0109159 -0.00446008 0)
(-0.00941577 -0.00421405 0)
(-0.00799832 -0.00393061 0)
(-0.00667485 -0.00361177 0)
(-0.00545576 -0.00326038 0)
(-0.00435034 -0.00288038 0)
(-0.00336641 -0.00247701 0)
(-0.00250996 -0.00205725 0)
(-0.00178474 -0.00163028 0)
(-0.00119183 -0.0012081 0)
(-0.000729106 -0.000806428 0)
(-0.000390651 -0.000445747 0)
(-0.000166053 -0.00015247 0)
(-4.14339e-05 3.95307e-05 0)
(-1.12605e-06 8.38664e-05 0)
(-9.45946e-06 -3.97263e-05 0)
(-9.06086e-05 0.000116876 0)
(-0.000297543 0.000438041 0)
(-0.000634597 0.000871067 0)
(-0.00110926 0.00137676 0)
(-0.00172837 0.00192418 0)
(-0.00249475 0.0024891 0)
(-0.00340776 0.0030528 0)
(-0.00446393 0.00360096 0)
(-0.0056574 0.00412269 0)
(-0.00698027 0.00460982 0)
(-0.008423 0.00505634 0)
(-0.0099747 0.00545789 0)
(-0.0116235 0.00581149 0)
(-0.0133569 0.0061152 0)
(-0.0151616 0.00636793 0)
(-0.0170242 0.00656927 0)
(-0.0189312 0.00671935 0)
(-0.0208688 0.00681874 0)
(-0.0228238 0.00686838 0)
(-0.0247826 0.00686948 0)
(-0.0267323 0.00682348 0)
(-0.0286602 0.00673203 0)
(-0.0305541 0.00659691 0)
(-0.0324023 0.00642006 0)
(-0.0341934 0.00620349 0)
(-0.0359167 0.00594932 0)
(-0.0375621 0.00565974 0)
(-0.03912 0.00533699 0)
(-0.0405815 0.00498338 0)
(-0.0419382 0.00460126 0)
(-0.0431827 0.00419302 0)
(-0.0443078 0.0037611 0)
(-0.0453073 0.00330798 0)
(-0.0461757 0.00283618 0)
(-0.0469081 0.00234826 0)
(-0.0475003 0.00184682 0)
(-0.047949 0.0013345 0)
(-0.0482516 0.000813978 0)
(-0.0484061 0.000287985 0)
(-0.0484114 -0.000240717 0)
(-0.0482672 -0.000769321 0)
(-0.0479741 -0.00129498 0)
(-0.0475332 -0.00181482 0)
(-0.0469466 -0.00232593 0)
(-0.0462173 -0.00282537 0)
(-0.0453489 -0.00331018 0)
(-0.0443461 -0.0037774 0)
(-0.0432141 -0.00422406 0)
(-0.0419591 -0.00464719 0)
(-0.0405881 -0.00504387 0)
(-0.039109 -0.00541119 0)
(-0.0375301 -0.0057463 0)
(-0.035861 -0.00604643 0)
(-0.0341116 -0.0063089 0)
(-0.0322928 -0.00653114 0)
(-0.0304158 -0.00671071 0)
(-0.0284928 -0.00684536 0)
(-0.0265363 -0.00693301 0)
(-0.0245595 -0.00697182 0)
(-0.0225758 -0.0069602 0)
(-0.020599 -0.00689688 0)
(-0.0186432 -0.00678092 0)
(-0.0167226 -0.00661181 0)
(-0.0148514 -0.00638949 0)
(-0.0130436 -0.00611446 0)
(-0.0113129 -0.00578785 0)
(-0.00967251 -0.00541157 0)
(-0.00813493 -0.00498844 0)
(-0.0067117 -0.00452237 0)
(-0.00541311 -0.00401864 0)
(-0.00424794 -0.00348421 0)
(-0.00322309 -0.00292811 0)
(-0.00234324 -0.00236197 0)
(-0.00161045 -0.0018007 0)
(-0.00102385 -0.00126336 0)
(-0.000579008 -0.00077418 0)
(-0.000267409 -0.00036369 0)
(-7.94048e-05 -7.01335e-05 0)
(-7.60873e-06 5.55208e-05 0)
(-1.60552e-05 1.45531e-05 0)
(-0.000130379 0.000293729 0)
(-0.000404931 0.000749826 0)
(-0.000834939 0.0013274 0)
(-0.00142286 0.00198411 0)
(-0.00217295 0.00268576 0)
(-0.00308589 0.00340502 0)
(-0.00415928 0.00412034 0)
(-0.00538824 0.00481486 0)
(-0.00676569 0.00547553 0)
(-0.00828261 0.00609235 0)
(-0.00992838 0.00665784 0)
(-0.0116911 0.00716646 0)
(-0.0135577 0.00761433 0)
(-0.0155147 0.00799887 0)
(-0.0175475 0.00831853 0)
(-0.0196418 0.00857266 0)
(-0.0217826 0.00876129 0)
(-0.0239551 0.00888502 0)
(-0.0261445 0.00894493 0)
(-0.0283364 0.00894249 0)
(-0.0305164 0.00887946 0)
(-0.0326707 0.00875789 0)
(-0.0347858 0.00858003 0)
(-0.0368489 0.0083483 0)
(-0.0388474 0.00806528 0)
(-0.0407697 0.00773367 0)
(-0.0426044 0.00735625 0)
(-0.0443412 0.00693593 0)
(-0.0459701 0.00647566 0)
(-0.0474819 0.00597848 0)
(-0.0488684 0.00544749 0)
(-0.0501217 0.00488584 0)
(-0.0512349 0.00429675 0)
(-0.052202 0.00368347 0)
(-0.0530175 0.00304934 0)
(-0.0536769 0.00239772 0)
(-0.0541764 0.00173204 0)
(-0.0545131 0.00105578 0)
(-0.0546851 0.000372473 0)
(-0.0546909 -0.000314286 0)
(-0.0545304 -0.00100087 0)
(-0.054204 -0.00168358 0)
(-0.0537132 -0.00235869 0)
(-0.0530602 -0.00302245 0)
(-0.0522483 -0.00367104 0)
(-0.0512815 -0.00430064 0)
(-0.0501649 -0.00490744 0)
(-0.0489044 -0.00548758 0)
(-0.0475068 -0.00603727 0)
(-0.0459799 -0.00655271 0)
(-0.0443321 -0.00703019 0)
(-0.042573 -0.00746603 0)
(-0.0407127 -0.00785669 0)
(-0.0387624 -0.00819873 0)
(-0.0367339 -0.00848887 0)
(-0.0346397 -0.00872402 0)
(-0.032493 -0.00890129 0)
(-0.0303077 -0.00901808 0)
(-0.0280981 -0.00907206 0)
(-0.0258789 -0.00906128 0)
(-0.0236654 -0.00898416 0)
(-0.0214728 -0.00883959 0)
(-0.0193166 -0.00862701 0)
(-0.0172124 -0.00834645 0)
(-0.0151754 -0.00799866 0)
(-0.0132205 -0.00758521 0)
(-0.0113622 -0.00710865 0)
(-0.00961412 -0.00657265 0)
(-0.0079888 -0.00598227 0)
(-0.00649765 -0.00534418 0)
(-0.0051505 -0.00466706 0)
(-0.00395531 -0.00396197 0)
(-0.00291791 -0.00324291 0)
(-0.0020417 -0.00252752 0)
(-0.00132741 -0.00183782 0)
(-0.000772554 -0.00120132 0)
(-0.000370979 -0.000651873 0)
(-0.000117709 -0.000231022 0)
(-1.39527e-05 7.37428e-06 0)
(-2.23719e-05 8.91247e-05 0)
(-0.00016948 0.000524075 0)
(-0.00051177 0.00114251 0)
(-0.00103553 0.00188756 0)
(-0.00173805 0.0027147 0)
(-0.00262073 0.00358728 0)
(-0.00368182 0.00447543 0)
(-0.00491687 0.00535517 0)
(-0.00631932 0.00620741 0)
(-0.00788063 0.00701711 0)
(-0.00959053 0.00777258 0)
(-0.0114372 0.00846487 0)
(-0.0134076 0.00908733 0)
(-0.0154878 0.00963515 0)
(-0.0176628 0.0101051 0)
(-0.0199174 0.0104951 0)
(-0.0222358 0.0108044 0)
(-0.0246021 0.0110327 0)
(-0.0270003 0.0111808 0)
(-0.0294145 0.0112498 0)
(-0.0318291 0.0112414 0)
(-0.0342288 0.0111579 0)
(-0.0365985 0.0110015 0)
(-0.0389238 0.0107751 0)
(-0.0411907 0.0104817 0)
(-0.0433857 0.0101243 0)
(-0.0454961 0.00970639 0)
(-0.0475097 0.0092313 0)
(-0.0494153 0.00870267 0)
(-0.051202 0.00812418 0)
(-0.0528601 0.0074996 0)
(-0.0543803 0.00683279 0)
(-0.0557543 0.0061277 0)
(-0.0569746 0.00538833 0)
(-0.0580346 0.00461877 0)
(-0.0589284 0.00382317 0)
(-0.059651 0.00300575 0)
(-0.0601985 0.0021708 0)
(-0.0605677 0.00132267 0)
(-0.0607563 0.000465789 0)
(-0.060763 -0.000395362 0)
(-0.0605875 -0.00125623 0)
(-0.0602303 -0.00211222 0)
(-0.0596929 -0.00295867 0)
(-0.0589779 -0.00379087 0)
(-0.0580888 -0.00460408 0)
(-0.05703 -0.00539355 0)
(-0.0558069 -0.00615449 0)
(-0.0544259 -0.00688215 0)
(-0.0528945 -0.00757176 0)
(-0.0512209 -0.00821863 0)
(-0.0494145 -0.00881814 0)
(-0.0474855 -0.00936574 0)
(-0.0454449 -0.00985704 0)
(-0.0433047 -0.0102878 0)
(-0.0410778 -0.0106539 0)
(-0.0387776 -0.0109516 0)
(-0.0364184 -0.0111774 0)
(-0.0340152 -0.011328 0)
(-0.0315834 -0.0114007 0)
(-0.0291389 -0.011393 0)
(-0.0266981 -0.0113031 0)
(-0.0242775 -0.0111298 0)
(-0.0218937 -0.0108723 0)
(-0.0195636 -0.0105308 0)
(-0.0173034 -0.0101064 0)
(-0.0151293 -0.00960109 0)
(-0.013057 -0.00901808 0)
(-0.011101 -0.00836195 0)
(-0.00927514 -0.00763889 0)
(-0.00759196 -0.00685699 0)
(-0.00606242 -0.00602659 0)
(-0.00469572 -0.0051607 0)
(-0.00349906 -0.00427557 0)
(-0.00247743 -0.00339125 0)
(-0.00163347 -0.00253244 0)
(-0.000966944 -0.00172931 0)
(-0.000474328 -0.00101841 0)
(-0.000155468 -0.000443592 0)
(-2.00385e-05 -6.03453e-05 0)
(-2.83775e-05 0.000183411 0)
(-0.000207489 0.000807282 0)
(-0.000616706 0.00161588 0)
(-0.00123376 0.00255183 0)
(-0.00205085 0.00356923 0)
(-0.0030664 0.00462962 0)
(-0.00427603 0.00570115 0)
(-0.00567304 0.00675783 0)
(-0.00724896 0.00777863 0)
(-0.00899365 0.00874677 0)
(-0.0108954 0.00964898 0)
(-0.0129411 0.010475 0)
(-0.0151166 0.0112171 0)
(-0.0174067 0.0118696 0)
(-0.0197955 0.0124285 0)
(-0.0222665 0.0128915 0)
(-0.024803 0.0132574 0)
(-0.027388 0.0135258 0)
(-0.0300044 0.0136975 0)
(-0.0326355 0.0137739 0)
(-0.0352645 0.0137568 0)
(-0.037875 0.0136489 0)
(-0.0404511 0.0134529 0)
(-0.0429773 0.0131722 0)
(-0.0454387 0.0128102 0)
(-0.0478209 0.0123707 0)
(-0.0501104 0.0118578 0)
(-0.0522942 0.0112755 0)
(-0.0543601 0.0106283 0)
(-0.0562966 0.00992048 0)
(-0.0580933 0.00915674 0)
(-0.0597403 0.00834172 0)
(-0.0612287 0.00748019 0)
(-0.0625505 0.00657705 0)
(-0.0636985 0.00563723 0)
(-0.0646666 0.0046658 0)
(-0.0654493 0.00366789 0)
(-0.0660425 0.00264871 0)
(-0.0664426 0.00161355 0)
(-0.0666474 0.000567803 0)
(-0.0666554 -0.00048309 0)
(-0.0664662 -0.0015336 0)
(-0.0660804 -0.00257813 0)
(-0.0654997 -0.00361102 0)
(-0.0647267 -0.00462656 0)
(-0.0637652 -0.00561901 0)
(-0.0626199 -0.00658259 0)
(-0.0612965 -0.0075115 0)
(-0.0598021 -0.00839998 0)
(-0.0581444 -0.00924227 0)
(-0.0563323 -0.0100327 0)
(-0.0543758 -0.0107657 0)
(-0.0522857 -0.0114357 0)
(-0.0500739 -0.0120375 0)
(-0.0477532 -0.0125659 0)
(-0.0453372 -0.0130161 0)
(-0.0428404 -0.0133834 0)
(-0.040278 -0.0136637 0)
(-0.0376658 -0.0138532 0)
(-0.0350204 -0.0139484 0)
(-0.0323588 -0.0139466 0)
(-0.0296983 -0.0138457 0)
(-0.0270567 -0.013644 0)
(-0.0244517 -0.013341 0)
(-0.021901 -0.0129368 0)
(-0.0194223 -0.0124329 0)
(-0.0170329 -0.0118317 0)
(-0.0147493 -0.0111371 0)
(-0.0125875 -0.0103545 0)
(-0.0105624 -0.00949131 0)
(-0.00868769 -0.00855694 0)
(-0.00697566 -0.00756332 0)
(-0.00543691 -0.00652532 0)
(-0.00408019 -0.00546118 0)
(-0.00291231 -0.00439317 0)
(-0.00193803 -0.00334822 0)
(-0.00115953 -0.00235876 0)
(-0.000576063 -0.00146332 0)
(-0.000192234 -0.000707367 0)
(-2.58264e-05 -0.000147115 0)
(-3.40744e-05 0.000296721 0)
(-0.000244231 0.00114223 0)
(-0.000719043 0.00216889 0)
(-0.00142817 0.00331946 0)
(-0.00235889 0.00454725 0)
(-0.00350664 0.00581257 0)
(-0.00486434 0.00708206 0)
(-0.00642286 0.00832809 0)
(-0.0081717 0.00952803 0)
(-0.010099 0.0106636 0)
(-0.0121914 0.0117201 0)
(-0.0144344 0.0126861 0)
(-0.0168127 0.0135529 0)
(-0.0193098 0.014314 0)
(-0.0219087 0.0149649 0)
(-0.0245919 0.0155027 0)
(-0.0273416 0.0159259 0)
(-0.0301399 0.0162342 0)
(-0.0329686 0.0164284 0)
(-0.03581 0.0165099 0)
(-0.0386464 0.016481 0)
(-0.0414605 0.0163445 0)
(-0.0442355 0.0161038 0)
(-0.0469549 0.0157628 0)
(-0.0496031 0.0153254 0)
(-0.0521649 0.0147961 0)
(-0.0546259 0.0141797 0)
(-0.0569724 0.013481 0)
(-0.0591916 0.0127052 0)
(-0.0612712 0.0118575 0)
(-0.0632002 0.0109433 0)
(-0.0649682 0.00996822 0)
(-0.0665657 0.00893791 0)
(-0.0679843 0.00785815 0)
(-0.0692164 0.00673484 0)
(-0.0702553 0.00557399 0)
(-0.0710956 0.00438168 0)
(-0.0717326 0.00316413 0)
(-0.0721627 0.00192763 0)
(-0.0723834 0.000678568 0)
(-0.0723932 -0.00057657 0)
(-0.0721917 -0.00183122 0)
(-0.0717794 -0.00307873 0)
(-0.0711582 -0.00431238 0)
(-0.0703307 -0.00552539 0)
(-0.0693011 -0.00671095 0)
(-0.0680742 -0.0078622 0)
(-0.0666562 -0.00897228 0)
(-0.0650543 -0.0100343 0)
(-0.0632768 -0.0110416 0)
(-0.0613331 -0.0119872 0)
(-0.0592338 -0.0128648 0)
(-0.0569903 -0.0136676 0)
(-0.054615 -0.0143895 0)
(-0.0521216 -0.0150245 0)
(-0.0495244 -0.0155668 0)
(-0.0468387 -0.0160109 0)
(-0.0440805 -0.0163521 0)
(-0.0412667 -0.0165856 0)
(-0.0384148 -0.0167078 0)
(-0.0355425 -0.0167151 0)
(-0.0326685 -0.0166053 0)
(-0.0298113 -0.0163765 0)
(-0.0269899 -0.016028 0)
(-0.024223 -0.0155602 0)
(-0.0215293 -0.0149746 0)
(-0.0189273 -0.0142742 0)
(-0.0164347 -0.0134635 0)
(-0.0140686 -0.0125489 0)
(-0.0118452 -0.0115387 0)
(-0.00977941 -0.0104437 0)
(-0.00788503 -0.00927738 0)
(-0.00617415 -0.00805615 0)
(-0.00465726 -0.00680013 0)
(-0.00334311 -0.00553351 0)
(-0.00223873 -0.00428512 0)
(-0.00134885 -0.00308919 0)
(-0.000675473 -0.00198577 0)
(-0.000227821 -0.00102136 0)
(-3.13167e-05 -0.00025229 0)
(-3.94855e-05 0.000428338 0)
(-0.000279673 0.00152754 0)
(-0.000818501 0.00280003 0)
(-0.00161805 0.00418905 0)
(-0.00266091 0.0056476 0)
(-0.00393959 0.00713519 0)
(-0.00544426 0.00861735 0)
(-0.00716333 0.0100652 0)
(-0.00908415 0.0114547 0)
(-0.0111929 0.0127664 0)
(-0.0134747 0.0139845 0)
(-0.0159135 0.0150964 0)
(-0.0184926 0.0160925 0)
(-0.0211943 0.0169656 0)
(-0.0240004 0.0177107 0)
(-0.0268924 0.0183245 0)
(-0.0298514 0.0188053 0)
(-0.0328584 0.0191528 0)
(-0.0358945 0.0193677 0)
(-0.0389409 0.0194517 0)
(-0.0419791 0.0194074 0)
(-0.0449909 0.019238 0)
(-0.0479585 0.0189474 0)
(-0.050865 0.0185399 0)
(-0.0536936 0.0180202 0)
(-0.0564286 0.0173936 0)
(-0.0590548 0.0166653 0)
(-0.0615579 0.0158412 0)
(-0.0639244 0.0149271 0)
(-0.0661415 0.0139292 0)
(-0.0681975 0.0128537 0)
(-0.0700816 0.0117072 0)
(-0.0717839 0.0104963 0)
(-0.0732954 0.00922771 0)
(-0.0746082 0.0079083 0)
(-0.0757155 0.00654508 0)
(-0.0766112 0.00514518 0)
(-0.0772907 0.00371583 0)
(-0.07775 0.00226439 0)
(-0.0779866 0.000798306 0)
(-0.0779988 -0.00067485 0)
(-0.0777863 -0.00214742 0)
(-0.0773495 -0.00361164 0)
(-0.0766903 -0.00505969 0)
(-0.0758117 -0.00648366 0)
(-0.0747178 -0.00787559 0)
(-0.0734136 -0.00922752 0)
(-0.0719058 -0.0105314 0)
(-0.0702017 -0.0117794 0)
(-0.0683102 -0.0129634 0)
(-0.066241 -0.0140757 0)
(-0.064005 -0.0151086 0)
(-0.0616145 -0.0160545 0)
(-0.0590823 -0.0169061 0)
(-0.0564227 -0.0176565 0)
(-0.0536508 -0.018299 0)
(-0.0507826 -0.0188273 0)
(-0.0478349 -0.0192357 0)
(-0.0448254 -0.019519 0)
(-0.0417724 -0.0196727 0)
(-0.0386948 -0.0196929 0)
(-0.0356119 -0.0195769 0)
(-0.0325434 -0.0193227 0)
(-0.0295092 -0.0189294 0)
(-0.0265292 -0.0183974 0)
(-0.0236232 -0.0177286 0)
(-0.0208107 -0.0169264 0)
(-0.0181106 -0.0159958 0)
(-0.0155413 -0.014944 0)
(-0.0131203 -0.0137805 0)
(-0.010864 -0.0125171 0)
(-0.00878753 -0.0111686 0)
(-0.00690477 -0.00975305 0)
(-0.00522801 -0.00829219 0)
(-0.00376809 -0.00681182 0)
(-0.0025344 -0.00534239 0)
(-0.00153422 -0.00391955 0)
(-0.000772289 -0.00258451 0)
(-0.000262198 -0.00138434 0)
(-3.65304e-05 -0.000375195 0)
(-4.46402e-05 0.000577573 0)
(-0.000313871 0.00196179 0)
(-0.000915062 0.00350757 0)
(-0.00180318 0.00515887 0)
(-0.00295641 0.0068687 0)
(-0.00436439 0.00859608 0)
(-0.00601459 0.0103058 0)
(-0.00789292 0.0119679 0)
(-0.00998449 0.0135576 0)
(-0.0122735 0.0150541 0)
(-0.0147434 0.0164407 0)
(-0.0173765 0.0177041 0)
(-0.0201546 0.0188337 0)
(-0.0230588 0.0198219 0)
(-0.0260697 0.0206631 0)
(-0.0291677 0.0213537 0)
(-0.0323327 0.0218919 0)
(-0.035545 0.0222774 0)
(-0.0387845 0.0225109 0)
(-0.0420317 0.0225945 0)
(-0.045267 0.0225309 0)
(-0.0484716 0.022324 0)
(-0.051627 0.021978 0)
(-0.0547152 0.0214979 0)
(-0.0577191 0.020889 0)
(-0.060622 0.0201573 0)
(-0.0634082 0.019309 0)
(-0.0660628 0.0183505 0)
(-0.0685716 0.0172887 0)
(-0.0709215 0.0161306 0)
(-0.0731003 0.0148834 0)
(-0.0750965 0.0135546 0)
(-0.0768999 0.0121517 0)
(-0.0785012 0.0106825 0)
(-0.0798922 0.00915493 0)
(-0.0810655 0.00757699 0)
(-0.0820152 0.00595688 0)
(-0.0827361 0.00430293 0)
(-0.0832242 0.00262358 0)
(-0.0834768 0.000927396 0)
(-0.0834923 -0.00077692 0)
(-0.08327 -0.00248057 0)
(-0.0828106 -0.00417464 0)
(-0.082116 -0.00585014 0)
(-0.0811892 -0.00749799 0)
(-0.0800343 -0.00910907 0)
(-0.0786569 -0.0106742 0)
(-0.0770635 -0.0121842 0)
(-0.0752619 -0.01363 0)
(-0.0732612 -0.0150023 0)
(-0.0710716 -0.0162924 0)
(-0.0687045 -0.0174913 0)
(-0.0661724 -0.0185904 0)
(-0.0634888 -0.0195813 0)
(-0.0606686 -0.020456 0)
(-0.0577274 -0.0212069 0)
(-0.0546819 -0.0218269 0)
(-0.0515497 -0.0223093 0)
(-0.0483493 -0.0226482 0)
(-0.0450997 -0.0228384 0)
(-0.0418207 -0.0228757 0)
(-0.0385326 -0.0227567 0)
(-0.0352561 -0.0224792 0)
(-0.0320119 -0.0220422 0)
(-0.0288211 -0.0214462 0)
(-0.0257045 -0.0206932 0)
(-0.0226829 -0.0197868 0)
(-0.0197764 -0.0187329 0)
(-0.0170047 -0.0175392 0)
(-0.0143866 -0.0162161 0)
(-0.0119401 -0.0147765 0)
(-0.00968187 -0.0132366 0)
(-0.0076276 -0.0116156 0)
(-0.00579152 -0.00993678 0)
(-0.00418661 -0.00822726 0)
(-0.00282467 -0.0065189 0)
(-0.00171552 -0.00484848 0)
(-0.000866529 -0.00325805 0)
(-0.00029543 -0.00179503 0)
(-4.14981e-05 -0.000515186 0)
(-4.95707e-05 0.000743787 0)
(-0.000346926 0.00244358 0)
(-0.00100887 0.00428974 0)
(-0.0019837 0.00622705 0)
(-0.00324541 0.00820872 0)
(-0.00478091 0.0101936 0)
(-0.00657503 0.0121459 0)
(-0.00861113 0.014035 0)
(-0.0108721 0.0158353 0)
(-0.0133401 0.0175253 0)
(-0.0159967 0.0190874 0)
(-0.0188227 0.0205076 0)
(-0.0217983 0.0217748 0)
(-0.0249032 0.0228808 0)
(-0.028117 0.0238196 0)
(-0.0314186 0.0245876 0)
(-0.0347872 0.0251827 0)
(-0.0382017 0.0256046 0)
(-0.0416415 0.0258544 0)
(-0.0450859 0.0259342 0)
(-0.0485147 0.0258474 0)
(-0.0519082 0.025598 0)
(-0.0552471 0.025191 0)
(-0.0585129 0.024632 0)
(-0.0616876 0.023927 0)
(-0.0647541 0.0230827 0)
(-0.067696 0.0221061 0)
(-0.0704979 0.0210046 0)
(-0.0731451 0.0197859 0)
(-0.075624 0.0184578 0)
(-0.0779218 0.0170287 0)
(-0.0800269 0.0155069 0)
(-0.0819285 0.0139011 0)
(-0.0836171 0.01222 0)
(-0.0850841 0.0104726 0)
(-0.0863219 0.0086681 0)
(-0.0873242 0.00681569 0)
(-0.0880859 0.00492486 0)
(-0.0886026 0.00300518 0)
(-0.0888716 0.00106637 0)
(-0.0888911 -0.000881712 0)
(-0.0886605 -0.00282907 0)
(-0.0881803 -0.00476561 0)
(-0.0874526 -0.00668113 0)
(-0.0864803 -0.00856534 0)
(-0.0852677 -0.0104079 0)
(-0.0838205 -0.0121984 0)
(-0.0821454 -0.0139264 0)
(-0.0802505 -0.0155816 0)
(-0.078145 -0.0171537 0)
(-0.0758396 -0.0186324 0)