/*--------------------------------*- C++ -*----------------------------------*\
  =========                 |
  \\      /  F ield         | OpenFOAM: The Open Source CFD Toolbox
   \\    /   O peration     | Website:  https://openfoam.org
    \\  /    A nd           | Version:  7
     \\/     M anipulation  |
\*---------------------------------------------------------------------------*/
FoamFile
{
    version     2.0;
    format      ascii;
    class       volVectorField;
    location    "0.225";
    object      U;
}
// * * * * * * * * * * * * * * * * * * * * * * * * * * * * * * * * * * * * * //

dimensions      [0 1 -1 0 0 0 0];

internalField   nonuniform List<vector> 
25600
(
(1.94892e-07 -1.94828e-07 0)
(2.85801e-06 -1.78489e-06 0)
(9.07417e-06 -2.82503e-06 0)
(1.68981e-05 -3.19729e-06 0)
(2.48262e-05 -3.11257e-06 0)
(3.19088e-05 -2.73438e-06 0)
(3.74938e-05 -2.16965e-06 0)
(4.11344e-05 -1.48908e-06 0)
(4.25313e-05 -7.39853e-07 0)
(4.14909e-05 4.85608e-08 0)
(3.78969e-05 8.55756e-07 0)
(3.1686e-05 1.66722e-06 0)
(2.28374e-05 2.47327e-06 0)
(1.13602e-05 3.2662e-06 0)
(-2.71245e-06 4.04096e-06 0)
(-1.93288e-05 4.79363e-06 0)
(-3.84242e-05 5.52104e-06 0)
(-5.99222e-05 6.22107e-06 0)
(-8.37377e-05 6.89204e-06 0)
(-0.00010978 7.53276e-06 0)
(-0.000137952 8.14251e-06 0)
(-0.000168154 8.72077e-06 0)
(-0.000200282 9.26689e-06 0)
(-0.000234232 9.78084e-06 0)
(-0.000269896 1.02623e-05 0)
(-0.000307167 1.07115e-05 0)
(-0.000345937 1.11284e-05 0)
(-0.000386098 1.15137e-05 0)
(-0.000427541 1.18673e-05 0)
(-0.000470161 1.21897e-05 0)
(-0.000513849 1.24812e-05 0)
(-0.000558502 1.2742e-05 0)
(-0.000604013 1.29727e-05 0)
(-0.000650281 1.3174e-05 0)
(-0.000697203 1.3346e-05 0)
(-0.000744678 1.34896e-05 0)
(-0.00079261 1.36051e-05 0)
(-0.000840899 1.3693e-05 0)
(-0.000889452 1.37541e-05 0)
(-0.000938174 1.37888e-05 0)
(-0.000986974 1.37977e-05 0)
(-0.00103576 1.37813e-05 0)
(-0.00108445 1.37401e-05 0)
(-0.00113295 1.36749e-05 0)
(-0.00118119 1.35864e-05 0)
(-0.00122907 1.34749e-05 0)
(-0.00127652 1.33411e-05 0)
(-0.00132346 1.31857e-05 0)
(-0.00136982 1.30092e-05 0)
(-0.00141552 1.28121e-05 0)
(-0.00146049 1.25951e-05 0)
(-0.00150465 1.23589e-05 0)
(-0.00154795 1.21039e-05 0)
(-0.00159032 1.18307e-05 0)
(-0.00163169 1.154e-05 0)
(-0.001672 1.12326e-05 0)
(-0.0017112 1.09089e-05 0)
(-0.00174922 1.05695e-05 0)
(-0.00178602 1.02148e-05 0)
(-0.00182153 9.84542e-06 0)
(-0.00185571 9.46209e-06 0)
(-0.00188851 9.06552e-06 0)
(-0.00191988 8.65631e-06 0)
(-0.00194978 8.23504e-06 0)
(-0.00197817 7.8023e-06 0)
(-0.002005 7.3586e-06 0)
(-0.00203024 6.90452e-06 0)
(-0.00205386 6.44075e-06 0)
(-0.00207582 5.96793e-06 0)
(-0.00209608 5.48665e-06 0)
(-0.00211463 4.99754e-06 0)
(-0.00213142 4.50124e-06 0)
(-0.00214645 3.99837e-06 0)
(-0.00215969 3.48958e-06 0)
(-0.00217111 2.97554e-06 0)
(-0.0021807 2.45689e-06 0)
(-0.00218845 1.93425e-06 0)
(-0.00219433 1.40831e-06 0)
(-0.00219835 8.79721e-07 0)
(-0.0022005 3.49167e-07 0)
(-0.00220076 -1.8264e-07 0)
(-0.00219913 -7.15032e-07 0)
(-0.00219562 -1.24732e-06 0)
(-0.00219023 -1.77879e-06 0)
(-0.00218296 -2.30876e-06 0)
(-0.00217381 -2.83649e-06 0)
(-0.0021628 -3.36123e-06 0)
(-0.00214995 -3.88226e-06 0)
(-0.00213525 -4.39893e-06 0)
(-0.00211874 -4.9105e-06 0)
(-0.00210042 -5.41609e-06 0)
(-0.00208034 -5.91497e-06 0)
(-0.0020585 -6.40644e-06 0)
(-0.00203493 -6.88976e-06 0)
(-0.00200968 -7.36413e-06 0)
(-0.00198277 -7.82878e-06 0)
(-0.00195423 -8.2829e-06 0)
(-0.00192411 -8.72569e-06 0)
(-0.00189245 -9.1564e-06 0)
(-0.00185929 -9.57432e-06 0)
(-0.00182468 -9.97872e-06 0)
(-0.00178867 -1.03688e-05 0)
(-0.00175131 -1.07438e-05 0)
(-0.00171266 -1.11027e-05 0)
(-0.00167277 -1.14448e-05 0)
(-0.00163171 -1.17694e-05 0)
(-0.00158954 -1.20758e-05 0)
(-0.00154632 -1.23633e-05 0)
(-0.00150212 -1.26312e-05 0)
(-0.00145702 -1.28786e-05 0)
(-0.00141109 -1.31047e-05 0)
(-0.0013644 -1.33089e-05 0)
(-0.00131703 -1.34906e-05 0)
(-0.00126907 -1.3649e-05 0)
(-0.00122059 -1.37833e-05 0)
(-0.00117168 -1.3893e-05 0)
(-0.00112244 -1.39775e-05 0)
(-0.00107294 -1.40361e-05 0)
(-0.00102328 -1.40683e-05 0)
(-0.000973566 -1.40734e-05 0)
(-0.000923877 -1.40508e-05 0)
(-0.000874318 -1.4e-05 0)
(-0.000824985 -1.39207e-05 0)
(-0.000775982 -1.38123e-05 0)
(-0.000727409 -1.36744e-05 0)
(-0.00067937 -1.35063e-05 0)
(-0.00063197 -1.33079e-05 0)
(-0.000585315 -1.30787e-05 0)
(-0.00053951 -1.28187e-05 0)
(-0.000494664 -1.25275e-05 0)
(-0.000450884 -1.22048e-05 0)
(-0.000408278 -1.18506e-05 0)
(-0.000366955 -1.14646e-05 0)
(-0.000327021 -1.10468e-05 0)
(-0.000288586 -1.05973e-05 0)
(-0.000251755 -1.01162e-05 0)
(-0.000216634 -9.60374e-06 0)
(-0.000183326 -9.06017e-06 0)
(-0.000151934 -8.48593e-06 0)
(-0.000122557 -7.88164e-06 0)
(-9.52909e-05 -7.24811e-06 0)
(-7.02267e-05 -6.58634e-06 0)
(-4.74514e-05 -5.89758e-06 0)
(-2.70451e-05 -5.18338e-06 0)
(-9.08009e-06 -4.4458e-06 0)
(6.38124e-06 -3.68754e-06 0)
(1.92887e-05 -2.91197e-06 0)
(2.96072e-05 -2.12339e-06 0)
(3.73213e-05 -1.3276e-06 0)
(4.244e-05 -5.32393e-07 0)
(4.50039e-05 2.51797e-07 0)
(4.50958e-05 1.01047e-06 0)
(4.28538e-05 1.72286e-06 0)
(3.84916e-05 2.35847e-06 0)
(3.23283e-05 2.87102e-06 0)
(2.48307e-05 3.1902e-06 0)
(1.66637e-05 3.21131e-06 0)
(8.77779e-06 2.77809e-06 0)
(2.64755e-06 1.69781e-06 0)
(1.24587e-07 1.24864e-07 0)
(1.78483e-06 -2.85986e-06 0)
(9.38013e-06 -9.38011e-06 0)
(2.30902e-05 -1.33741e-05 0)
(3.92637e-05 -1.46729e-05 0)
(5.50659e-05 -1.38998e-05 0)
(6.85059e-05 -1.16276e-05 0)
(7.8051e-05 -8.29525e-06 0)
(8.25457e-05 -4.23103e-06 0)
(8.11601e-05 3.24608e-07 0)
(7.33183e-05 5.19837e-06 0)
(5.8636e-05 1.02612e-05 0)
(3.68824e-05 1.5418e-05 0)
(7.94103e-06 2.05958e-05 0)
(-2.82115e-05 2.57393e-05 0)
(-7.15262e-05 3.08067e-05 0)
(-0.000121899 3.57642e-05 0)
(-0.000179178 4.05864e-05 0)
(-0.000243179 4.52536e-05 0)
(-0.000313688 4.97494e-05 0)
(-0.000390467 5.4062e-05 0)
(-0.00047326 5.81823e-05 0)
(-0.000561801 6.21028e-05 0)
(-0.000655808 6.58185e-05 0)
(-0.000754994 6.93255e-05 0)
(-0.000859064 7.26211e-05 0)
(-0.000967721 7.57034e-05 0)
(-0.00108066 7.85725e-05 0)
(-0.00119758 8.12279e-05 0)
(-0.00131819 8.36702e-05 0)
(-0.00144216 8.59012e-05 0)
(-0.00156921 8.79218e-05 0)
(-0.00169903 8.9734e-05 0)
(-0.00183133 9.13403e-05 0)
(-0.0019658 9.27431e-05 0)
(-0.00210217 9.39453e-05 0)
(-0.00224013 9.49499e-05 0)
(-0.00237942 9.57601e-05 0)
(-0.00251974 9.6379e-05 0)
(-0.00266083 9.68104e-05 0)
(-0.00280241 9.70578e-05 0)
(-0.00294422 9.71248e-05 0)
(-0.00308599 9.7015e-05 0)
(-0.00322749 9.67322e-05 0)
(-0.00336845 9.62805e-05 0)
(-0.00350863 9.56638e-05 0)
(-0.00364779 9.4886e-05 0)
(-0.00378571 9.39511e-05 0)
(-0.00392216 9.28633e-05 0)
(-0.0040569 9.16264e-05 0)
(-0.00418974 9.02446e-05 0)
(-0.00432047 8.87222e-05 0)
(-0.00444887 8.70633e-05 0)
(-0.00457475 8.52718e-05 0)
(-0.00469792 8.33517e-05 0)
(-0.0048182 8.13075e-05 0)
(-0.00493541 7.91434e-05 0)
(-0.00504937 7.68638e-05 0)
(-0.00515992 7.44728e-05 0)
(-0.0052669 7.19744e-05 0)
(-0.00537016 6.93728e-05 0)
(-0.00546954 6.66722e-05 0)
(-0.0055649 6.3877e-05 0)
(-0.00565611 6.09915e-05 0)
(-0.00574304 5.80201e-05 0)
(-0.00582557 5.49671e-05 0)
(-0.00590358 5.18367e-05 0)
(-0.00597696 4.86332e-05 0)
(-0.00604561 4.53612e-05 0)
(-0.00610943 4.20251e-05 0)
(-0.00616832 3.86292e-05 0)
(-0.00622221 3.5178e-05 0)
(-0.00627102 3.1676e-05 0)
(-0.00631467 2.81277e-05 0)
(-0.0063531 2.45376e-05 0)
(-0.00638626 2.09105e-05 0)
(-0.0064141 1.72512e-05 0)
(-0.00643656 1.3564e-05 0)
(-0.00645362 9.85393e-06 0)
(-0.00646524 6.12571e-06 0)
(-0.0064714 2.38411e-06 0)
(-0.00647209 -1.36605e-06 0)
(-0.00646729 -5.11978e-06 0)
(-0.00645701 -8.87213e-06 0)
(-0.00644125 -1.26181e-05 0)
(-0.00642003 -1.63527e-05 0)
(-0.00639336 -2.00709e-05 0)
(-0.00636128 -2.37675e-05 0)
(-0.00632382 -2.74373e-05 0)
(-0.00628102 -3.1075e-05 0)
(-0.00623293 -3.46756e-05 0)
(-0.00617962 -3.82336e-05 0)
(-0.00612115 -4.17438e-05 0)
(-0.0060576 -4.52008e-05 0)
(-0.00598904 -4.85993e-05 0)
(-0.00591557 -5.19339e-05 0)
(-0.00583728 -5.51991e-05 0)
(-0.00575428 -5.83895e-05 0)
(-0.00566669 -6.14997e-05 0)
(-0.00557462 -6.45241e-05 0)
(-0.00547821 -6.74574e-05 0)
(-0.00537759 -7.02942e-05 0)
(-0.00527291 -7.30292e-05 0)
(-0.00516433 -7.5657e-05 0)
(-0.00505199 -7.8172e-05 0)
(-0.00493608 -8.05688e-05 0)
(-0.00481676 -8.28422e-05 0)
(-0.00469423 -8.49869e-05 0)
(-0.00456867 -8.69978e-05 0)
(-0.00444028 -8.88699e-05 0)
(-0.00430927 -9.0598e-05 0)
(-0.00417586 -9.21771e-05 0)
(-0.00404026 -9.36023e-05 0)
(-0.0039027 -9.48689e-05 0)
(-0.00376342 -9.59722e-05 0)
(-0.00362265 -9.69076e-05 0)
(-0.00348065 -9.76706e-05 0)
(-0.00333767 -9.8257e-05 0)
(-0.00319397 -9.86627e-05 0)
(-0.00304981 -9.88839e-05 0)
(-0.00290547 -9.89165e-05 0)
(-0.00276121 -9.8757e-05 0)
(-0.00261733 -9.8402e-05 0)
(-0.00247411 -9.78484e-05 0)
(-0.00233183 -9.70933e-05 0)
(-0.00219079 -9.6134e-05 0)
(-0.00205129 -9.49681e-05 0)
(-0.00191363 -9.35931e-05 0)
(-0.00177811 -9.20074e-05 0)
(-0.00164503 -9.02095e-05 0)
(-0.0015147 -8.81986e-05 0)
(-0.00138742 -8.59737e-05 0)
(-0.00126351 -8.35346e-05 0)
(-0.00114327 -8.08816e-05 0)
(-0.001027 -7.80153e-05 0)
(-0.000915 -7.49373e-05 0)
(-0.000807578 -7.16496e-05 0)
(-0.000705025 -6.81553e-05 0)
(-0.000607627 -6.44581e-05 0)
(-0.000515665 -6.0563e-05 0)
(-0.000429411 -5.64761e-05 0)
(-0.000349122 -5.22054e-05 0)
(-0.000275044 -4.77605e-05 0)
(-0.000207405 -4.31535e-05 0)
(-0.000146409 -3.83988e-05 0)
(-9.22378e-05 -3.35147e-05 0)
(-4.50392e-05 -2.85237e-05 0)
(-4.92238e-06 -2.3454e-05 0)
(2.80511e-05 -1.83405e-05 0)
(5.38793e-05 -1.3228e-05 0)
(7.26345e-05 -8.17371e-06 0)
(8.44823e-05 -3.25146e-06 0)
(8.97058e-05 1.44186e-06 0)
(8.87389e-05 5.77767e-06 0)
(8.22077e-05 9.58261e-06 0)
(7.09871e-05 1.26204e-05 0)
(5.62677e-05 1.45704e-05 0)
(3.96059e-05 1.50091e-05 0)
(2.29834e-05 1.33977e-05 0)
(9.17478e-06 9.17892e-06 0)
(1.69505e-06 2.64597e-06 0)
(2.82262e-06 -9.06996e-06 0)
(1.33779e-05 -2.3092e-05 0)
(3.09748e-05 -3.09575e-05 0)
(5.06503e-05 -3.29885e-05 0)
(6.88115e-05 -3.02866e-05 0)
(8.29052e-05 -2.39441e-05 0)
(9.08537e-05 -1.48872e-05 0)
(9.10208e-05 -3.85867e-06 0)
(8.21767e-05 8.56332e-06 0)
(6.34276e-05 2.19323e-05 0)
(3.41544e-05 3.59048e-05 0)
(-6.04462e-06 5.02144e-05 0)
(-5.73921e-05 6.46535e-05 0)
(-0.000119968 7.90608e-05 0)
(-0.000193737 9.33081e-05 0)
(-0.000278572 0.000107295 0)
(-0.000374269 0.000120941 0)
(-0.000480565 0.000134182 0)
(-0.000597147 0.000146969 0)
(-0.000723661 0.000159261 0)
(-0.000859724 0.000171028 0)
(-0.00100493 0.000182243 0)
(-0.00115884 0.00019289 0)
(-0.00132101 0.000202952 0)
(-0.00149098 0.000212421 0)
(-0.00166829 0.000221289 0)
(-0.00185246 0.000229552 0)
(-0.00204302 0.000237208 0)
(-0.00223947 0.000244257 0)
(-0.00244135 0.0002507 0)
(-0.00264817 0.000256541 0)
(-0.00285945 0.000261784 0)
(-0.00307471 0.000266436 0)
(-0.00329348 0.000270501 0)
(-0.0035153 0.000273987 0)
(-0.0037397 0.000276902 0)
(-0.00396622 0.000279255 0)
(-0.00419442 0.000281055 0)
(-0.00442386 0.00028231 0)
(-0.00465409 0.000283031 0)
(-0.00488468 0.000283229 0)
(-0.00511523 0.000282912 0)
(-0.00534531 0.000282093 0)
(-0.00557452 0.000280782 0)
(-0.00580247 0.00027899 0)
(-0.00602878 0.000276729 0)
(-0.00625305 0.00027401 0)
(-0.00647493 0.000270845 0)
(-0.00669406 0.000267244 0)
(-0.00691009 0.000263221 0)
(-0.00712267 0.000258786 0)
(-0.00733149 0.000253953 0)
(-0.00753621 0.000248732 0)
(-0.00773653 0.000243136 0)
(-0.00793214 0.000237178 0)
(-0.00812276 0.000230868 0)
(-0.0083081 0.000224219 0)
(-0.0084879 0.000217245 0)
(-0.00866188 0.000209957 0)
(-0.00882981 0.000202367 0)
(-0.00899143 0.000194488 0)
(-0.00914652 0.000186332 0)
(-0.00929485 0.000177912 0)
(-0.00943622 0.00016924 0)
(-0.00957043 0.000160329 0)
(-0.00969728 0.000151193 0)
(-0.0098166 0.000141842 0)
(-0.00992822 0.000132292 0)
(-0.010032 0.000122553 0)
(-0.0101277 0.00011264 0)
(-0.0102153 0.000102566 0)
(-0.0102946 9.23436e-05 0)
(-0.0103656 8.19862e-05 0)
(-0.010428 7.15072e-05 0)
(-0.0104819 6.09203e-05 0)
(-0.0105271 5.02391e-05 0)
(-0.0105636 3.94775e-05 0)
(-0.0105912 2.86494e-05 0)
(-0.01061 1.77688e-05 0)
(-0.01062 6.84989e-06 0)
(-0.010621 -4.09319e-06 0)
(-0.0106131 -1.5046e-05 0)
(-0.0105963 -2.59941e-05 0)
(-0.0105706 -3.69228e-05 0)
(-0.010536 -4.78173e-05 0)
(-0.0104925 -5.86628e-05 0)
(-0.0104403 -6.94444e-05 0)
(-0.0103792 -8.01468e-05 0)
(-0.0103095 -9.07547e-05 0)
(-0.0102313 -0.000101253 0)
(-0.0101445 -0.000111626 0)
(-0.0100493 -0.000121858 0)
(-0.0099459 -0.000131934 0)
(-0.00983434 -0.000141838 0)
(-0.0097148 -0.000151555 0)
(-0.00958744 -0.000161068 0)
(-0.00945243 -0.000170362 0)
(-0.00930996 -0.000179421 0)
(-0.00916022 -0.000188229 0)
(-0.00900343 -0.000196771 0)
(-0.0088398 -0.00020503 0)
(-0.00866959 -0.000212991 0)
(-0.00849303 -0.000220638 0)
(-0.00831039 -0.000227956 0)
(-0.00812195 -0.00023493 0)
(-0.00792799 -0.000241543 0)
(-0.0077288 -0.00024778 0)
(-0.00752471 -0.000253628 0)
(-0.00731604 -0.00025907 0)
(-0.00710312 -0.000264093 0)
(-0.00688629 -0.000268682 0)
(-0.00666592 -0.000272822 0)
(-0.00644238 -0.000276501 0)
(-0.00621604 -0.000279705 0)
(-0.0059873 -0.00028242 0)
(-0.00575656 -0.000284635 0)
(-0.00552423 -0.000286337 0)
(-0.00529073 -0.000287514 0)
(-0.00505648 -0.000288156 0)
(-0.00482193 -0.00028825 0)
(-0.00458752 -0.000287789 0)
(-0.0043537 -0.000286761 0)
(-0.00412095 -0.000285159 0)
(-0.00388971 -0.000282974 0)
(-0.00366046 -0.000280198 0)
(-0.00343369 -0.000276827 0)
(-0.00320987 -0.000272853 0)
(-0.00298949 -0.000268274 0)
(-0.00277303 -0.000263084 0)
(-0.00256099 -0.000257281 0)
(-0.00235385 -0.000250866 0)
(-0.0021521 -0.000243838 0)
(-0.00195623 -0.000236199 0)
(-0.00176673 -0.000227953 0)
(-0.00158406 -0.000219106 0)
(-0.00140871 -0.000209665 0)
(-0.00124113 -0.000199642 0)
(-0.00108177 -0.000189049 0)
(-0.000931077 -0.000177904 0)
(-0.000789463 -0.000166227 0)
(-0.000657326 -0.000154044 0)
(-0.00053504 -0.000141386 0)
(-0.000422947 -0.000128293 0)
(-0.00032135 -0.00011481 0)
(-0.00023051 -0.000100995 0)
(-0.000150632 -8.69182e-05 0)
(-8.18582e-05 -7.26654e-05 0)
(-2.42488e-05 -5.8343e-05 0)
(2.22306e-05 -4.40837e-05 0)
(5.77329e-05 -3.00534e-05 0)
(8.25556e-05 -1.64624e-05 0)
(9.71739e-05 -3.57785e-06 0)
(0.000102282 8.25812e-06 0)
(9.88411e-05 1.8605e-05 0)
(8.81427e-05 2.68962e-05 0)
(7.18707e-05 3.24126e-05 0)
(5.21276e-05 3.42712e-05 0)
(3.14577e-05 3.14533e-05 0)
(1.33929e-05 2.29856e-05 0)
(2.77333e-06 8.77017e-06 0)
(3.19962e-06 -1.68991e-05 0)
(1.47066e-05 -3.92895e-05 0)
(3.30837e-05 -5.06479e-05 0)
(5.24786e-05 -5.23444e-05 0)
(6.87946e-05 -4.61185e-05 0)
(7.91256e-05 -3.36411e-05 0)
(8.10662e-05 -1.63693e-05 0)
(7.26712e-05 4.48884e-06 0)
(5.24366e-05 2.79558e-05 0)
(1.92387e-05 5.32517e-05 0)
(-2.77318e-05 7.97564e-05 0)
(-8.90174e-05 0.000106977 0)
(-0.00016494 0.000134521 0)
(-0.00025564 0.000162076 0)
(-0.000361108 0.000189391 0)
(-0.000481209 0.000216266 0)
(-0.000615709 0.000242539 0)
(-0.000764287 0.00026808 0)
(-0.000926555 0.000292785 0)
(-0.00110207 0.000316571 0)
(-0.00129034 0.00033937 0)
(-0.00149083 0.000361129 0)
(-0.00170299 0.000381807 0)
(-0.00192623 0.000401372 0)
(-0.00215995 0.0004198 0)
(-0.00240354 0.000437074 0)
(-0.00265636 0.000453181 0)
(-0.00291778 0.000468117 0)
(-0.00318716 0.000481878 0)
(-0.00346385 0.000494464 0)
(-0.00374721 0.000505881 0)
(-0.0040366 0.000516135 0)
(-0.00433137 0.000525235 0)
(-0.00463089 0.000533191 0)
(-0.00493453 0.000540018 0)
(-0.00524166 0.000545728 0)
(-0.00555167 0.000550338 0)
(-0.00586394 0.000553863 0)
(-0.00617787 0.000556322 0)
(-0.00649288 0.000557733 0)
(-0.00680838 0.000558116 0)
(-0.00712379 0.000557489 0)
(-0.00743856 0.000555875 0)
(-0.00775213 0.000553293 0)
(-0.00806398 0.000549766 0)
(-0.00837357 0.000545314 0)
(-0.00868038 0.000539961 0)
(-0.00898392 0.000533729 0)
(-0.00928369 0.00052664 0)
(-0.00957922 0.000518717 0)
(-0.00987004 0.000509984 0)
(-0.0101557 0.000500463 0)
(-0.0104358 0.000490179 0)
(-0.0107098 0.000479154 0)
(-0.0109774 0.000467414 0)
(-0.0112382 0.000454981 0)
(-0.0114917 0.00044188 0)
(-0.0117377 0.000428135 0)
(-0.0119757 0.00041377 0)
(-0.0122054 0.00039881 0)
(-0.0124265 0.000383279 0)
(-0.0126387 0.000367202 0)
(-0.0128416 0.000350603 0)
(-0.013035 0.000333507 0)
(-0.0132185 0.000315939 0)
(-0.013392 0.000297926 0)
(-0.0135552 0.000279491 0)
(-0.0137079 0.00026066 0)
(-0.0138498 0.000241459 0)
(-0.0139807 0.000221914 0)
(-0.0141005 0.000202051 0)
(-0.0142089 0.000181895 0)
(-0.0143059 0.000161474 0)
(-0.0143913 0.000140814 0)
(-0.0144649 0.000119941 0)
(-0.0145266 9.88833e-05 0)
(-0.0145764 7.76674e-05 0)
(-0.0146141 5.6321e-05 0)
(-0.0146398 3.48719e-05 0)
(-0.0146533 1.33481e-05 0)
(-0.0146546 -8.2222e-06 0)
(-0.0146437 -2.98107e-05 0)
(-0.0146206 -5.13887e-05 0)
(-0.0145853 -7.29272e-05 0)
(-0.0145378 -9.43971e-05 0)
(-0.0144782 -0.000115769 0)
(-0.0144066 -0.000137013 0)
(-0.0143231 -0.0001581 0)
(-0.0142276 -0.000179 0)
(-0.0141204 -0.000199681 0)
(-0.0140016 -0.000220114 0)
(-0.0138714 -0.000240269 0)
(-0.0137298 -0.000260114 0)
(-0.0135772 -0.000279619 0)
(-0.0134136 -0.000298753 0)
(-0.0132393 -0.000317484 0)
(-0.0130546 -0.000335782 0)
(-0.0128597 -0.000353616 0)
(-0.0126548 -0.000370954 0)
(-0.0124403 -0.000387766 0)
(-0.0122165 -0.000404021 0)
(-0.0119837 -0.000419687 0)
(-0.0117422 -0.000434734 0)
(-0.0114925 -0.000449132 0)
(-0.0112347 -0.000462849 0)
(-0.0109695 -0.000475857 0)
(-0.0106971 -0.000488126 0)
(-0.0104181 -0.000499626 0)
(-0.0101327 -0.000510328 0)
(-0.00984163 -0.000520204 0)
(-0.00954518 -0.000529225 0)
(-0.00924389 -0.000537366 0)
(-0.00893827 -0.000544598 0)
(-0.00862884 -0.000550897 0)
(-0.00831612 -0.000556236 0)
(-0.00800066 -0.000560591 0)
(-0.00768303 -0.00056394 0)
(-0.00736379 -0.000566258 0)
(-0.00704353 -0.000567525 0)
(-0.00672284 -0.000567721 0)
(-0.00640233 -0.000566826 0)
(-0.00608261 -0.000564822 0)
(-0.00576431 -0.000561693 0)
(-0.00544805 -0.000557424 0)
(-0.00513449 -0.000552001 0)
(-0.00482425 -0.000545413 0)
(-0.00451801 -0.00053765 0)
(-0.0042164 -0.000528705 0)
(-0.00392008 -0.000518571 0)
(-0.00362972 -0.000507246 0)
(-0.00334597 -0.000494729 0)
(-0.00306948 -0.000481023 0)
(-0.00280092 -0.000466134 0)
(-0.00254091 -0.000450071 0)
(-0.00229011 -0.000432846 0)
(-0.00204914 -0.00041448 0)
(-0.0018186 -0.000394994 0)
(-0.0015991 -0.000374419 0)
(-0.00139121 -0.00035279 0)
(-0.00119546 -0.000330153 0)
(-0.00101239 -0.000306563 0)
(-0.000842473 -0.000282084 0)
(-0.000686137 -0.000256797 0)
(-0.000543769 -0.000230799 0)
(-0.000415687 -0.000204205 0)
(-0.000302136 -0.000177159 0)
(-0.000203272 -0.000149832 0)
(-0.000119143 -0.000122434 0)
(-4.96699e-05 -9.52254e-05 0)
(5.38017e-06 -6.85242e-05 0)
(4.64229e-05 -4.27263e-05 0)
(7.40945e-05 -1.83242e-05 0)
(8.92932e-05 4.06722e-06 0)
(9.32284e-05 2.36807e-05 0)
(8.74769e-05 3.95635e-05 0)
(7.40415e-05 5.05505e-05 0)
(5.53608e-05 5.52586e-05 0)
(3.43357e-05 5.21335e-05 0)
(1.50239e-05 3.96204e-05 0)
(3.2082e-06 1.66522e-05 0)
(3.12487e-06 -2.48522e-05 0)
(1.39899e-05 -5.51683e-05 0)
(3.05238e-05 -6.88975e-05 0)
(4.64983e-05 -6.87002e-05 0)
(5.75383e-05 -5.70906e-05 0)
(6.05174e-05 -3.63692e-05 0)
(5.28329e-05 -8.5382e-06 0)
(3.23548e-05 2.47129e-05 0)
(-2.59373e-06 6.19893e-05 0)
(-5.32946e-05 0.000102149 0)
(-0.00012069 0.000144264 0)
(-0.00020543 0.000187582 0)
(-0.000307917 0.000231492 0)
(-0.000428344 0.0002755 0)
(-0.000566726 0.000319202 0)
(-0.000722932 0.000362273 0)
(-0.000896705 0.000404447 0)
(-0.00108768 0.000445506 0)
(-0.00129542 0.000485275 0)
(-0.00151939 0.000523612 0)
(-0.00175902 0.000560401 0)
(-0.00201368 0.00059555 0)
(-0.0022827 0.000628984 0)
(-0.00256538 0.000660646 0)
(-0.00286098 0.000690493 0)
(-0.00316876 0.000718492 0)
(-0.00348796 0.000744618 0)
(-0.00381779 0.000768858 0)
(-0.00415747 0.000791204 0)
(-0.00450621 0.000811654 0)
(-0.00486322 0.000830212 0)
(-0.00522769 0.000846886 0)
(-0.00559884 0.000861688 0)
(-0.00597588 0.000874634 0)
(-0.00635803 0.000885743 0)
(-0.00674451 0.000895036 0)
(-0.00713455 0.000902537 0)
(-0.00752739 0.000908271 0)
(-0.00792229 0.000912266 0)
(-0.00831851 0.00091455 0)
(-0.00871531 0.000915155 0)
(-0.00911198 0.000914112 0)
(-0.00950783 0.000911453 0)
(-0.00990216 0.000907212 0)
(-0.0102943 0.000901424 0)
(-0.0106836 0.000894123 0)
(-0.0110694 0.000885345 0)
(-0.0114511 0.000875127 0)
(-0.011828 0.000863505 0)
(-0.0121996 0.000850517 0)
(-0.0125653 0.0008362 0)
(-0.0129244 0.000820592 0)
(-0.0132766 0.000803731 0)
(-0.0136211 0.000785656 0)
(-0.0139576 0.000766405 0)
(-0.0142855 0.000746019 0)
(-0.0146043 0.000724536 0)
(-0.0149135 0.000701996 0)
(-0.0152127 0.000678439 0)
(-0.0155016 0.000653904 0)
(-0.0157795 0.000628431 0)
(-0.0160462 0.000602062 0)
(-0.0163013 0.000574837 0)
(-0.0165444 0.000546796 0)
(-0.0167752 0.000517981 0)
(-0.0169933 0.000488433 0)
(-0.0171984 0.000458194 0)
(-0.0173903 0.000427306 0)
(-0.0175686 0.00039581 0)
(-0.0177332 0.00036375 0)
(-0.0178837 0.000331168 0)
(-0.0180199 0.000298108 0)
(-0.0181418 0.000264611 0)
(-0.018249 0.000230723 0)
(-0.0183414 0.000196488 0)
(-0.018419 0.000161949 0)
(-0.0184814 0.000127152 0)
(-0.0185288 9.21429e-05 0)
(-0.0185609 5.69661e-05 0)
(-0.0185778 2.16679e-05 0)
(-0.0185793 -1.37051e-05 0)
(-0.0185654 -4.91063e-05 0)
(-0.0185363 -8.44886e-05 0)
(-0.0184918 -0.000119805 0)
(-0.018432 -0.000155006 0)
(-0.018357 -0.000190045 0)
(-0.0182668 -0.000224873 0)
(-0.0181616 -0.00025944 0)
(-0.0180415 -0.000293698 0)
(-0.0179067 -0.000327597 0)
(-0.0177572 -0.000361086 0)
(-0.0175934 -0.000394117 0)
(-0.0174153 -0.000426638 0)
(-0.0172233 -0.0004586 0)
(-0.0170176 -0.000489951 0)
(-0.0167985 -0.00052064 0)
(-0.0165662 -0.000550618 0)
(-0.0163211 -0.000579832 0)
(-0.0160636 -0.000608233 0)
(-0.0157939 -0.000635769 0)
(-0.0155126 -0.00066239 0)
(-0.0152199 -0.000688046 0)
(-0.0149164 -0.000712687 0)
(-0.0146024 -0.000736262 0)
(-0.0142785 -0.000758722 0)
(-0.0139451 -0.000780019 0)
(-0.0136028 -0.000800104 0)
(-0.0132521 -0.000818929 0)
(-0.0128935 -0.000836448 0)
(-0.0125277 -0.000852615 0)
(-0.0121551 -0.000867383 0)
(-0.0117765 -0.000880709 0)
(-0.0113924 -0.00089255 0)
(-0.0110036 -0.000902863 0)
(-0.0106106 -0.000911608 0)
(-0.0102141 -0.000918745 0)
(-0.00981496 -0.000924237 0)
(-0.00941375 -0.000928048 0)
(-0.00901123 -0.000930142 0)
(-0.00860815 -0.000930488 0)
(-0.00820527 -0.000929055 0)
(-0.00780335 -0.000925815 0)
(-0.00740316 -0.000920743 0)
(-0.00700551 -0.000913813 0)
(-0.00661117 -0.000905007 0)
(-0.00622095 -0.000894306 0)
(-0.00583566 -0.000881695 0)
(-0.00545612 -0.000867165 0)
(-0.00508313 -0.000850708 0)
(-0.00471751 -0.00083232 0)
(-0.00436007 -0.000812004 0)
(-0.00401162 -0.000789766 0)
(-0.00367296 -0.000765617 0)
(-0.00334489 -0.000739577 0)
(-0.00302818 -0.00071167 0)
(-0.00272361 -0.000681929 0)
(-0.00243191 -0.000650396 0)
(-0.00215381 -0.000617124 0)
(-0.00188999 -0.000582177 0)
(-0.00164113 -0.000545633 0)
(-0.00140784 -0.000507584 0)
(-0.00119069 -0.000468146 0)
(-0.000990184 -0.000427452 0)
(-0.000806775 -0.000385665 0)
(-0.000640826 -0.000342981 0)
(-0.000492608 -0.000299633 0)
(-0.000362284 -0.000255904 0)
(-0.000249885 -0.000212136 0)
(-0.00015529 -0.000168743 0)
(-7.81988e-05 -0.000126227 0)
(-1.80998e-05 -8.52033e-05 0)
(2.57659e-05 -4.64218e-05 0)
(5.44447e-05 -1.08002e-05 0)
(6.93153e-05 2.05419e-05 0)
(7.21405e-05 4.62479e-05 0)
(6.51194e-05 6.46936e-05 0)
(5.08983e-05 7.39777e-05 0)
(3.2613e-05 7.19554e-05 0)
(1.46349e-05 5.63416e-05 0)
(3.19455e-06 2.48313e-05 0)
(2.76212e-06 -3.19962e-05 0)
(1.17993e-05 -6.87719e-05 0)
(2.43835e-05 -8.31951e-05 0)
(3.43715e-05 -7.92028e-05 0)
(3.73248e-05 -6.01382e-05 0)
(3.00034e-05 -2.89565e-05 0)
(9.70588e-06 1.1783e-05 0)
(-2.57919e-05 5.99091e-05 0)
(-7.82632e-05 0.000113602 0)
(-0.000149083 0.000171347 0)
(-0.000239277 0.000231893 0)
(-0.000349568 0.000294208 0)
(-0.000480414 0.00035744 0)
(-0.000632046 0.000420892 0)
(-0.000804499 0.000483988 0)
(-0.000997641 0.000546253 0)
(-0.0012112 0.000607298 0)
(-0.00144478 0.000666803 0)
(-0.00169788 0.000724504 0)
(-0.00196993 0.000780186 0)
(-0.00226026 0.000833672 0)
(-0.00256817 0.00088482 0)
(-0.00289288 0.000933515 0)
(-0.00323359 0.000979666 0)
(-0.00358947 0.0010232 0)
(-0.00395964 0.00106407 0)
(-0.00434321 0.00110222 0)
(-0.00473928 0.00113764 0)
(-0.00514694 0.00117031 0)
(-0.00556525 0.00120022 0)
(-0.00599329 0.00122737 0)
(-0.00643012 0.00125177 0)
(-0.00687482 0.00127344 0)
(-0.00732645 0.0012924 0)
(-0.00778409 0.00130866 0)
(-0.00824683 0.00132226 0)
(-0.00871376 0.00133324 0)
(-0.00918397 0.00134162 0)
(-0.00965658 0.00134745 0)
(-0.0101307 0.00135076 0)
(-0.0106055 0.00135161 0)
(-0.0110801 0.00135003 0)
(-0.0115537 0.00134607 0)
(-0.0120255 0.00133978 0)
(-0.0124946 0.00133121 0)
(-0.0129602 0.00132042 0)
(-0.0134217 0.00130744 0)
(-0.0138783 0.00129234 0)
(-0.0143291 0.00127518 0)
(-0.0147736 0.00125599 0)
(-0.0152109 0.00123484 0)
(-0.0156405 0.00121179 0)
(-0.0160617 0.00118689 0)
(-0.0164738 0.00116019 0)
(-0.0168762 0.00113176 0)
(-0.0172683 0.00110165 0)
(-0.0176495 0.00106992 0)
(-0.0180194 0.00103663 0)
(-0.0183772 0.00100183 0)
(-0.0187226 0.000965592 0)
(-0.019055 0.000927966 0)
(-0.0193739 0.000889015 0)
(-0.0196789 0.000848798 0)
(-0.0199696 0.000807377 0)
(-0.0202455 0.000764811 0)
(-0.0205063 0.000721163 0)
(-0.0207516 0.000676493 0)
(-0.0209809 0.000630864 0)
(-0.0211941 0.000584338 0)
(-0.0213908 0.000536979 0)
(-0.0215707 0.000488849 0)
(-0.0217336 0.000440012 0)
(-0.0218792 0.000390533 0)
(-0.0220073 0.000340476 0)
(-0.0221177 0.000289906 0)
(-0.0222103 0.000238891 0)
(-0.0222849 0.000187495 0)
(-0.0223414 0.000135787 0)
(-0.0223797 8.38332e-05 0)
(-0.0223997 3.17021e-05 0)
(-0.0224014 -2.05378e-05 0)
(-0.0223847 -7.28172e-05 0)
(-0.0223497 -0.000125066 0)
(-0.0222963 -0.000177215 0)
(-0.0222247 -0.000229193 0)
(-0.0221349 -0.000280928 0)
(-0.0220269 -0.000332348 0)
(-0.021901 -0.000383381 0)
(-0.0217573 -0.000433955 0)
(-0.0215959 -0.000483995 0)
(-0.0214171 -0.00053343 0)
(-0.0212211 -0.000582183 0)
(-0.0210081 -0.000630182 0)
(-0.0207784 -0.000677352 0)
(-0.0205323 -0.000723618 0)
(-0.0202702 -0.000768906 0)
(-0.0199925 -0.00081314 0)
(-0.0196994 -0.000856245 0)
(-0.0193914 -0.000898148 0)
(-0.019069 -0.000938772 0)
(-0.0187325 -0.000978045 0)
(-0.0183826 -0.00101589 0)
(-0.0180197 -0.00105224 0)
(-0.0176443 -0.00108701 0)
(-0.0172571 -0.00112014 0)
(-0.0168585 -0.00115155 0)
(-0.0164493 -0.00118117 0)
(-0.01603 -0.00120894 0)
(-0.0156013 -0.00123478 0)
(-0.0151639 -0.00125862 0)
(-0.0147186 -0.00128041 0)
(-0.0142659 -0.00130006 0)
(-0.0138068 -0.00131754 0)
(-0.0133419 -0.00133276 0)
(-0.0128721 -0.00134567 0)
(-0.0123981 -0.00135622 0)
(-0.0119209 -0.00136434 0)
(-0.0114412 -0.00137 0)
(-0.0109599 -0.00137313 0)
(-0.0104778 -0.00137369 0)
(-0.00999602 -0.00137164 0)
(-0.00951529 -0.00136694 0)
(-0.00903658 -0.00135955 0)
(-0.00856082 -0.00134943 0)
(-0.00808895 -0.00133657 0)
(-0.00762191 -0.00132093 0)
(-0.00716067 -0.00130249 0)
(-0.00670617 -0.00128125 0)
(-0.00625938 -0.00125719 0)
(-0.00582126 -0.00123032 0)
(-0.00539275 -0.00120063 0)
(-0.00497481 -0.00116814 0)
(-0.00456838 -0.00113288 0)
(-0.00417438 -0.00109486 0)
(-0.00379372 -0.00105414 0)
(-0.0034273 -0.00101077 0)
(-0.00307598 -0.000964809 0)
(-0.0027406 -0.000916343 0)
(-0.00242195 -0.000865472 0)
(-0.00212079 -0.000812317 0)
(-0.00183782 -0.000757019 0)
(-0.0015737 -0.000699752 0)
(-0.001329 -0.00064072 0)
(-0.00110422 -0.000580166 0)
(-0.000899763 -0.00051838 0)
(-0.000715917 -0.000455708 0)
(-0.000552852 -0.000392561 0)
(-0.000410586 -0.000329432 0)
(-0.000288964 -0.000266913 0)
(-0.000187636 -0.000205714 0)
(-0.00010602 -0.000146688 0)
(-4.32743e-05 -9.0863e-05 0)
(1.74546e-06 -3.94744e-05 0)
(3.05231e-05 5.99584e-06 0)
(4.49298e-05 4.3781e-05 0)
(4.72728e-05 7.17936e-05 0)
(4.03129e-05 8.76014e-05 0)
(2.73198e-05 8.8434e-05 0)
(1.27696e-05 7.12093e-05 0)
(2.88962e-06 3.23747e-05 0)
(2.21748e-06 -3.76929e-05 0)
(8.57068e-06 -7.85932e-05 0)
(1.55805e-05 -9.15007e-05 0)
(1.75348e-05 -8.14879e-05 0)
(1.01229e-05 -5.27038e-05 0)
(-9.91251e-06 -8.75128e-06 0)
(-4.52885e-05 4.72609e-05 0)
(-9.82527e-05 0.000112685 0)
(-0.000170611 0.00018528 0)
(-0.000263778 0.00026316 0)
(-0.00037882 0.000344744 0)
(-0.000516498 0.000428711 0)
(-0.0006773 0.00051396 0)
(-0.000861477 0.000599571 0)
(-0.00106907 0.00068478 0)
(-0.00129995 0.000768952 0)
(-0.00155382 0.000851559 0)
(-0.00183025 0.00093216 0)
(-0.00212871 0.00101039 0)
(-0.00244856 0.00108596 0)
(-0.00278908 0.0011586 0)
(-0.00314948 0.00122813 0)
(-0.00352891 0.00129437 0)
(-0.00392647 0.00135719 0)
(-0.00434123 0.00141649 0)
(-0.0047722 0.00147218 0)
(-0.00521839 0.00152421 0)
(-0.00567879 0.00157253 0)
(-0.00615234 0.00161711 0)
(-0.00663802 0.00165794 0)
(-0.00713475 0.00169502 0)
(-0.00764149 0.00172835 0)
(-0.00815718 0.00175795 0)
(-0.00868074 0.00178384 0)
(-0.00921115 0.00180606 0)
(-0.00974733 0.00182463 0)
(-0.0102883 0.0018396 0)
(-0.0108329 0.00185103 0)
(-0.0113803 0.00185894 0)
(-0.0119293 0.00186341 0)
(-0.0124791 0.00186449 0)
(-0.0130285 0.00186224 0)
(-0.0135768 0.00185672 0)
(-0.0141229 0.001848 0)
(-0.0146659 0.00183614 0)
(-0.0152048 0.00182121 0)
(-0.0157389 0.00180329 0)
(-0.0162673 0.00178244 0)
(-0.0167891 0.00175874 0)
(-0.0173034 0.00173226 0)
(-0.0178095 0.00170308 0)
(-0.0183066 0.00167128 0)
(-0.018794 0.00163692 0)
(-0.0192708 0.00160009 0)
(-0.0197364 0.00156086 0)
(-0.0201901 0.00151932 0)
(-0.0206312 0.00147555 0)
(-0.0210591 0.00142962 0)
(-0.0214731 0.00138162 0)
(-0.0218727 0.00133162 0)
(-0.0222572 0.00127972 0)
(-0.0226262 0.00122598 0)
(-0.0229791 0.0011705 0)
(-0.0233153 0.00111335 0)
(-0.0236345 0.00105463 0)
(-0.0239361 0.000994414 0)
(-0.0242198 0.000932789 0)
(-0.0244851 0.00086984 0)
(-0.0247317 0.000805656 0)
(-0.0249591 0.000740321 0)
(-0.0251672 0.000673924 0)
(-0.0253555 0.000606553 0)
(-0.0255238 0.000538297 0)
(-0.0256719 0.000469246 0)
(-0.0257995 0.00039949 0)
(-0.0259065 0.000329119 0)
(-0.0259927 0.000258227 0)
(-0.0260579 0.000186904 0)
(-0.0261021 0.000115246 0)
(-0.0261251 4.33452e-05 0)
(-0.0261269 -2.8703e-05 0)
(-0.0261074 -0.000100803 0)
(-0.0260668 -0.000172859 0)
(-0.0260049 -0.000244773 0)
(-0.0259219 -0.000316448 0)
(-0.0258178 -0.000387785 0)