/*--------------------------------*- C++ -*----------------------------------*\
  =========                 |
  \\      /  F ield         | OpenFOAM: The Open Source CFD Toolbox
   \\    /   O peration     | Website:  https://openfoam.org
    \\  /    A nd           | Version:  7
     \\/     M anipulation  |
\*---------------------------------------------------------------------------*/
FoamFile
{
    version     2.0;
    format      ascii;
    class       volScalarField;
    location    "0.3625";
    object      p;
}
// * * * * * * * * * * * * * * * * * * * * * * * * * * * * * * * * * * * * * //

dimensions      [0 2 -2 0 0 0 0];

internalField   nonuniform List<scalar> 
25600
(
3.71086e-06
0.000118172
0.000147455
3.93181e-05
-0.000213993
-0.000608387
-0.00113284
-0.00177283
-0.0025129
-0.00333783
-0.00423311
-0.00518514
-0.00618131
-0.00720996
-0.00826041
-0.00932281
-0.0103881
-0.0114481
-0.0124952
-0.0135224
-0.0145235
-0.0154926
-0.0164245
-0.0173144
-0.0181578
-0.0189509
-0.0196901
-0.0203721
-0.0209941
-0.0215535
-0.022048
-0.0224756
-0.0228345
-0.0231234
-0.0233408
-0.0234858
-0.0235574
-0.0235551
-0.0234784
-0.0233269
-0.0231006
-0.0227995
-0.0224238
-0.0219737
-0.0214498
-0.0208526
-0.0201829
-0.0194415
-0.0186292
-0.0177473
-0.0167968
-0.0157789
-0.0146951
-0.0135467
-0.0123352
-0.0110623
-0.00972971
-0.00833908
-0.00689227
-0.00539118
-0.00383777
-0.00223406
-0.000582154
0.00111581
0.00285764
0.00464107
0.0064638
0.00832346
0.0102177
0.012144
0.0140999
0.0160829
0.0180904
0.0201199
0.0221686
0.024234
0.0263133
0.0284039
0.030503
0.0326078
0.0347156
0.0368236
0.038929
0.041029
0.0431208
0.0452016
0.0472686
0.0493189
0.0513498
0.0533585
0.0553422
0.0572982
0.0592237
0.061116
0.0629725
0.0647906
0.0665675
0.0683009
0.0699881
0.0716268
0.0732144
0.0747488
0.0762276
0.0776486
0.0790097
0.080309
0.0815444
0.082714
0.0838163
0.0848494
0.0858119
0.0867024
0.0875195
0.0882621
0.0889291
0.0895197
0.0900332
0.0904689
0.0908264
0.0911054
0.091306
0.0914281
0.091472
0.0914383
0.0913277
0.0911411
0.0908795
0.0905444
0.0901374
0.0896604
0.0891155
0.0885051
0.0878319
0.0870989
0.0863095
0.0854673
0.0845764
0.0836412
0.0826665
0.0816574
0.0806197
0.0795596
0.0784838
0.0773994
0.0763143
0.075237
0.0741766
0.0731431
0.0721472
0.0712003
0.0703147
0.0695037
0.0687812
0.0681617
0.0676596
0.067288
0.0670562
0.0669658
0.0670057
0.0671206
-0.000105143
7.02016e-06
1.13322e-05
-0.000109548
-0.000351604
-0.000713107
-0.00118746
-0.00176421
-0.00243142
-0.00317673
-0.0039879
-0.00485312
-0.00576117
-0.00670149
-0.00766426
-0.00864032
-0.00962119
-0.0105991
-0.0115667
-0.0125174
-0.0134452
-0.0143443
-0.0152097
-0.0160366
-0.0168208
-0.0175583
-0.0182457
-0.0188797
-0.0194575
-0.0199764
-0.0204341
-0.0208288
-0.0211584
-0.0214217
-0.0216171
-0.0217437
-0.0218005
-0.0217868
-0.021702
-0.021546
-0.0213183
-0.0210191
-0.0206485
-0.0202066
-0.0196939
-0.0191109
-0.0184582
-0.0177366
-0.016947
-0.0160903
-0.0151676
-0.0141801
-0.0131291
-0.0120159
-0.010842
-0.00960878
-0.00831798
-0.00697124
-0.00557031
-0.00411699
-0.00261319
-0.00106083
0.000538055
0.00218142
0.00386713
0.00559302
0.00735685
0.00915637
0.0109892
0.0128531
0.0147456
0.0166642
0.0186065
0.0205699
0.022552
0.0245501
0.0265616
0.028584
0.0306145
0.0326506
0.0346894
0.0367285
0.0387649
0.0407961
0.0428193
0.0448318
0.0468309
0.0488139
0.050778
0.0527206
0.054639
0.0565306
0.0583927
0.0602227
0.0620181
0.0637763
0.0654948
0.0671711
0.0688029
0.0703879
0.0719236
0.0734079
0.0748386
0.0762137
0.077531
0.0787887
0.0799849
0.0811178
0.0821859
0.0831875
0.0841212
0.0849857
0.0857797
0.0865023
0.0871523
0.0877291
0.0882319
0.0886603
0.0890138
0.0892923
0.0894958
0.0896244
0.0896785
0.0896586
0.0895655
0.0894001
0.0891635
0.0888572
0.0884828
0.0880422
0.0875375
0.0869712
0.0863459
0.0856645
0.0849305
0.0841474
0.0833191
0.0824501
0.0815448
0.0806086
0.0796468
0.0786654
0.0776708
0.07667
0.0756703
0.0746799
0.0737072
0.0727614
0.0718524
0.0709905
0.0701868
0.0694525
0.0687993
0.0682389
0.0677824
0.067439
0.0672143
0.067108
0.0671217
0.0672365
-0.000133298
3.18832e-06
7.50998e-06
-0.000114636
-0.000346759
-0.000685779
-0.00112622
-0.00165936
-0.00227513
-0.00296304
-0.00371245
-0.00451291
-0.00535433
-0.00622709
-0.00712212
-0.00803091
-0.00894549
-0.00985847
-0.010763
-0.0116526
-0.0125215
-0.0133642
-0.0141758
-0.0149517
-0.0156876
-0.0163798
-0.0170248
-0.0176194
-0.0181607
-0.0186463
-0.0190738
-0.0194411
-0.0197465
-0.0199885
-0.0201657
-0.0202769
-0.0203213
-0.0202981
-0.0202067
-0.0200467
-0.019818
-0.0195204
-0.0191539
-0.0187188
-0.0182155
-0.0176443
-0.0170059
-0.0163009
-0.0155303
-0.0146948
-0.0137955
-0.0128336
-0.0118101
-0.0107265
-0.00958411
-0.00838434
-0.00712876
-0.00581898
-0.00445669
-0.00304363
-0.00158163
-7.25668e-05
0.00148162
0.00307894
0.00471732
0.00639468
0.00810884
0.00985761
0.0116387
0.0134499
0.0152888
0.0171531
0.0190404
0.0209481
0.0228739
0.0248153
0.0267697
0.0287345
0.0307073
0.0326853
0.0346661
0.036647
0.0386254
0.0405986
0.042564
0.044519
0.0464609
0.0483871
0.050295
0.052182
0.0540455
0.0558829
0.0576917
0.0594693
0.0612133
0.0629212
0.0645906
0.0662191
0.0678044
0.0693443
0.0708364
0.0722788
0.0736692
0.0750057
0.0762863
0.0775092
0.0786726
0.0797749
0.0808144
0.0817896
0.0826993
0.0835421
0.0843169
0.0850226
0.0856585
0.0862237
0.0867177
0.08714
0.0874902
0.0877683
0.0879742
0.0881083
0.0881707
0.0881622
0.0880835
0.0879356
0.0877197
0.0874371
0.0870895
0.0866789
0.0862072
0.085677
0.0850908
0.0844517
0.0837628
0.0830277
0.0822502
0.0814346
0.0805855
0.0797077
0.0788066
0.0778879
0.0769578
0.0760229
0.0750903
0.0741675
0.0732625
0.0723839
0.0715406
0.0707422
0.0699985
0.0693196
0.0687157
0.0681964
0.067771
0.0674474
0.0672302
0.0671213
0.0671356
0.0672774
-2.54205e-05
0.000124274
0.00013015
8.08259e-06
-0.000218115
-0.000543364
-0.000961949
-0.00146566
-0.00204549
-0.00269204
-0.00339581
-0.00414739
-0.00493762
-0.0057577
-0.00659925
-0.00745432
-0.00831547
-0.00917569
-0.0100285
-0.0108677
-0.0116878
-0.0124836
-0.0132501
-0.0139831
-0.0146783
-0.0153321
-0.0159411
-0.0165021
-0.0170123
-0.0174693
-0.0178708
-0.0182147
-0.0184992
-0.0187228
-0.0188842
-0.0189822
-0.0190158
-0.0189843
-0.0188872
-0.0187238
-0.0184941
-0.0181979
-0.0178351
-0.017406
-0.0169109
-0.0163501
-0.0157242
-0.0150339
-0.0142799
-0.0134631
-0.0125844
-0.011645
-0.0106459
-0.00958833
-0.00847372
-0.00730343
-0.00607893
-0.00480179
-0.00347362
-0.00209612
-0.000671059
0.000799755
0.00231444
0.00387105
0.0054676
0.00710204
0.00877228
0.0104762
0.0122115
0.0139761
0.0157677
0.017584
0.0194225
0.0212811
0.0231571
0.0250483
0.0269521
0.0288661
0.0307878
0.0327146
0.0346441
0.0365736
0.0385007
0.0404227
0.042337
0.0442413
0.0461327
0.0480089
0.0498672
0.0517052
0.0535202
0.0553099
0.0570717
0.0588032
0.060502
0.0621656
0.0637918
0.0653782
0.0669227
0.0684229
0.0698768
0.0712823
0.0726374
0.07394
0.0751885
0.0763809
0.0775156
0.0785909
0.0796054
0.0805575
0.0814462
0.08227
0.0830279
0.0837191
0.0843426
0.0848977
0.0853839
0.0858008
0.0861481
0.0864258
0.0866338
0.0867724
0.0868421
0.0868434
0.0867771
0.0866442
0.086446
0.0861837
0.0858591
0.085474
0.0850305
0.084531
0.0839781
0.0833746
0.0827239
0.0820292
0.0812944
0.0805236
0.0797212
0.078892
0.0780411
0.077174
0.0762966
0.0754152
0.0745365
0.0736677
0.0728161
0.0719899
0.0711972
0.0704468
0.0697476
0.0691088
0.0685393
0.0680481
0.0676433
0.0673323
0.0671202
0.0670113
0.0670288
0.0671878
0.000227206
0.000366469
0.000362817
0.000234904
8.6365e-06
-0.000309667
-0.000714003
-0.00119653
-0.00174896
-0.00236281
-0.0030295
-0.00374053
-0.00448757
-0.00526256
-0.00605777
-0.00686584
-0.00767981
-0.00849311
-0.00929957
-0.0100935
-0.0108694
-0.0116224
-0.0123477
-0.0130413
-0.013699
-0.0143174
-0.014893
-0.0154229
-0.0159042
-0.0163346
-0.0167117
-0.0170337
-0.0172986
-0.017505
-0.0176516
-0.0177371
-0.0177607
-0.0177214
-0.0176188
-0.0174524
-0.0172218
-0.0169269
-0.0165678
-0.0161444
-0.0156572
-0.0151064
-0.0144926
-0.0138163
-0.0130783
-0.0122794
-0.0114205
-0.0105027
-0.00952689
-0.00849443
-0.00740655
-0.00626458
-0.00506997
-0.00382421
-0.00252886
-0.00118557
0.000203962
0.00163797
0.00311464
0.00463208
0.00618836
0.00778149
0.00940945
0.0110702
0.0127615
0.0144812
0.0162272
0.0179972
0.019789
0.0216001
0.0234283
0.0252712
0.0271264
0.0289915
0.030864
0.0327415
0.0346216
0.0365017
0.0383794
0.0402522
0.0421176
0.043973
0.045816
0.0476441
0.0494548
0.0512457
0.0530143
0.0547581
0.0564748
0.0581621
0.0598174
0.0614387
0.0630234
0.0645696
0.0660749
0.0675372
0.0689544
0.0703247
0.0716459
0.0729162
0.0741339
0.0752971
0.0764043
0.077454
0.0784445
0.0793747
0.0802432
0.0810489
0.0817908
0.082468
0.0830796
0.0836251
0.0841039
0.0845156
0.0848601
0.0851372
0.0853471
0.08549
0.0855664
0.0855768
0.0855221
0.0854032
0.0852214
0.0849781
0.0846748
0.0843135
0.0838961
0.0834251
0.082903
0.0823325
0.0817169
0.0810594
0.0803638
0.079634
0.0788742
0.0780891
0.0772835
0.0764627
0.0756325
0.0747986
0.0739675
0.0731458
0.0723405
0.0715591
0.0708092
0.0700988
0.0694359
0.0688287
0.0682857
0.0678147
0.0674236
0.0671195
0.0669076
0.0667936
0.0668039
0.066957
0.000620805
0.000728296
0.000702662
0.000560978
0.000327403
8.74447e-06
-0.000388888
-0.00085807
-0.00139114
-0.00198039
-0.00261805
-0.0032964
-0.00400786
-0.00474506
-0.00550088
-0.00626851
-0.00704148
-0.00781364
-0.00857921
-0.00933275
-0.0100692
-0.0107837
-0.0114719
-0.0121298
-0.0127534
-0.0133394
-0.0138845
-0.0143857
-0.0148405
-0.0152463
-0.015601
-0.0159026
-0.0161494
-0.0163399
-0.0164727
-0.0165467
-0.0165609
-0.0165145
-0.0164068
-0.0162376
-0.0160063
-0.0157128
-0.0153572
-0.0149394
-0.0144597
-0.0139185
-0.0133162
-0.0126533
-0.0119306
-0.0111489
-0.0103088
-0.00941159
-0.00845814
-0.00744964
-0.00638729
-0.0052724
-0.00410635
-0.00289058
-0.00162662
-0.000316036
0.00103951
0.00243832
0.00387862
0.00535859
0.00687635
0.00842997
0.0100175
0.0116368
0.013286
0.0149629
0.0166653
0.018391
0.0201379
0.0219037
0.0236861
0.0254828
0.0272915
0.0291098
0.0309354
0.0327658
0.0345987
0.0364316
0.0382622
0.0400879
0.0419064
0.0437152
0.045512
0.0472942
0.0490595
0.0508054
0.0525296
0.0542298
0.0559036
0.0575486
0.0591626
0.0607434
0.0622888
0.0637965
0.0652645
0.0666907
0.0680732
0.0694098
0.0706989
0.0719385
0.0731269
0.0742624
0.0753435
0.0763687
0.0773366
0.0782459
0.0790953
0.0798838
0.0806105
0.0812743
0.0818747
0.082411
0.0828827
0.0832895
0.0836311
0.0839077
0.0841192
0.0842659
0.0843484
0.0843672
0.0843231
0.0842172
0.0840506
0.0838247
0.0835411
0.0832016
0.0828083
0.0823634
0.0818695
0.0813292
0.0807456
0.0801219
0.0794617
0.0787689
0.0780474
0.0773018
0.0765367
0.075757
0.0749683
0.074176
0.0733862
0.072605
0.0718391
0.0710953
0.0703807
0.0697025
0.0690681
0.0684851
0.0679608
0.0675028
0.0671182
0.0668142
0.0665959
0.0664697
0.0664608
0.066587
0.00114486
0.00120361
0.00114462
0.000980962
0.000732532
0.000406106
7.71402e-06
-0.000455726
-0.000977182
-0.00154962
-0.00216598
-0.00281926
-0.00350254
-0.0042091
-0.00493238
-0.00566612
-0.00640429
-0.00714117
-0.00787135
-0.00858971
-0.00929144
-0.00997203
-0.0106273
-0.0112533
-0.0118464
-0.0124033
-0.0129208
-0.0133962
-0.0138268
-0.0142103
-0.0145445
-0.0148276
-0.0150579
-0.0152338
-0.015354
-0.0154174
-0.015423
-0.0153701
-0.015258
-0.0150862
-0.0148544
-0.0145624
-0.0142102
-0.0137977
-0.0133253
-0.0127932
-0.0122018
-0.0115517
-0.0108435
-0.0100779
-0.00925585
-0.00837815
-0.00744586
-0.00646006
-0.00542192
-0.00433271
-0.00319375
-0.00200643
-0.000772234
0.00050732
0.00183063
0.00319604
0.00460183
0.00604624
0.00752745
0.00904357
0.0105927
0.0121728
0.013782
0.0154181
0.0170792
0.0187629
0.0204673
0.0221901
0.0239291
0.025682
0.0274465
0.0292205
0.0310015
0.0327872
0.0345754
0.0363635
0.0381494
0.0399306
0.0417047
0.0434694
0.0452223
0.0469611
0.0486834
0.0503868
0.0520691
0.0537279
0.0553611
0.0569662
0.0585412
0.0600838
0.0615919
0.0630634
0.0644962
0.0658883
0.0672379
0.0685429
0.0698016
0.0710122
0.0721731
0.0732825
0.0743391
0.0753413
0.0762878
0.0771774
0.0780088
0.0787811
0.0794934
0.0801447
0.0807344
0.081262
0.0817269
0.082129
0.0824679
0.0827437
0.0829566
0.0831067
0.0831947
0.0832211
0.0831867
0.0830925
0.0829397
0.0827296
0.0824639
0.0821442
0.0817726
0.0813514
0.0808828
0.0803696
0.0798148
0.0792214
0.0785928
0.0779328
0.0772452
0.0765344
0.0758046
0.0750608
0.0743079
0.0735512
0.0727964
0.0720492
0.0713158
0.0706025
0.0699158
0.0692624
0.0686491
0.0680826
0.0675699
0.0671176
0.0667325
0.0664214
0.0661897
0.0660436
0.0660044
0.0660867
0.00178555
0.00178259
0.00168051
0.00148716
0.00121667
0.000875458
0.000469347
4.65386e-06
-0.000512231
-0.00107492
-0.001677
-0.00231212
-0.00297399
-0.00365645
-0.00435352
-0.00505941
-0.00576854
-0.00647561
-0.00717556
-0.0078636
-0.00853519
-0.0091861
-0.00981233
-0.0104102
-0.0109761
-0.011507
-0.0119999
-0.0124521
-0.0128609
-0.0132243
-0.0135401
-0.0138064
-0.0140216
-0.0141842
-0.014293
-0.0143469
-0.0143448
-0.014286
-0.0141698
-0.0139959
-0.0137638
-0.0134733
-0.0131245
-0.0127172
-0.0122517
-0.0117283
-0.0111473
-0.0105093
-0.00981486
-0.00906469
-0.00825959
-0.00740043
-0.00648818
-0.0055239
-0.00450871
-0.00344384
-0.00233055
-0.0011702
3.57875e-05
0.00128593
0.00257868
0.00391242
0.00528551
0.0066962
0.00814274
0.00962331
0.011136
0.012679
0.0142502
0.0158478
0.0174696
0.0191135
0.0207776
0.0224596
0.0241574
0.0258688
0.0275915
0.0293235
0.0310623
0.0328057
0.0345515
0.0362973
0.0380408
0.0397799
0.041512
0.0432349
0.0449464
0.0466441
0.0483257
0.049989
0.0516316
0.0532514
0.0548462
0.0564137
0.0579518
0.0594583
0.0609313
0.0623686
0.0637682
0.0651283
0.0664468
0.0677221
0.0689522
0.0701355
0.0712704
0.0723553
0.0733887
0.0743693
0.0752957
0.0761667
0.0769812
0.0777383
0.078437
0.0790765
0.0796562
0.0801755
0.0806339
0.0810314
0.0813676
0.0816426
0.0818565
0.0820096
0.0821025
0.0821356
0.0821099
0.0820263
0.0818859
0.0816901
0.0814405
0.0811387
0.0807866
0.0803865
0.0799407
0.0794518
0.0789225
0.078356
0.0777554
0.0771243
0.0764664
0.0757858
0.0750867
0.0743736
0.0736512
0.0729246
0.0721989
0.0714796
0.0707724
0.0700831
0.0694177
0.0687823
0.0681831
0.0676264
0.0671184
0.0666652
0.0662731
0.0659482
0.0656959
0.0655224
0.0654435
0.0654688
0.00252831
0.00245404
0.00230097
0.00207117
0.00177209
0.00140969
0.000989515
0.000517216
-1.47605e-06
-0.000560791
-0.00115495
-0.00177818
-0.00242478
-0.00308914
-0.00376577
-0.00444937
-0.0051348
-0.00581714
-0.00649167
-0.00715393
-0.00779967
-0.00842491
-0.00902586
-0.00959903
-0.0101411
-0.0106491
-0.0111201
-0.0115515
-0.0119409
-0.0122862
-0.0125854
-0.0128366
-0.0130383
-0.013189
-0.0132875
-0.0133328
-0.0133237
-0.0132597
-0.0131401
-0.0129644
-0.0127322
-0.0124434
-0.0120978
-0.0116955
-0.0112367
-0.0107216
-0.0101505
-0.00952403
-0.00884267
-0.00810711
-0.00731811
-0.00647652
-0.00558327
-0.00463938
-0.00364593
-0.00260411
-0.00151513
-0.000380329
0.000798934
0.00202122
0.00328501
0.00458877
0.00593086
0.00730962
0.00872332
0.0101702
0.0116484
0.0131562
0.0146915
0.0162525
0.0178371
0.0194434
0.0210693
0.0227127
0.0243715
0.0260436
0.0277267
0.0294189
0.0311178
0.0328211
0.0345268
0.0362326
0.0379362
0.0396353
0.0413277
0.0430112
0.0446835
0.0463424
0.0479856
0.049611
0.0512162
0.0527992
0.0543577
0.0558897
0.0573931
0.0588657
0.0603055
0.0617106
0.063079
0.0644088
0.0656982
0.0669454
0.0681486
0.0693063
0.0704168
0.0714786
0.0724902
0.0734505
0.0743579
0.0752115
0.0760102
0.0767529
0.0774388
0.0780671
0.0786373
0.0791487
0.079601
0.079994
0.0803275
0.0806015
0.0808162
0.0809719
0.081069
0.0811082
0.0810902
0.081016
0.0808868
0.0807038
0.0804685
0.0801826
0.079848
0.0794668
0.0790412
0.0785737
0.078067
0.0775241
0.076948
0.0763421
0.0757099
0.0750554
0.0743824
0.0736954
0.0729986
0.0722968
0.0715948
0.0708978
0.0702109
0.0695396
0.0688894
0.0682659
0.0676747
0.0671215
0.066612
0.0661519
0.0657466
0.0654017
0.0651226
0.0649149
0.0647883
0.0647468
0.00335894
0.00320651
0.00299627
0.00272431
0.00239097
0.00200171
0.00156178
0.00107615
0.000549891
-1.18238e-05
-0.000603801
-0.00122084
-0.00185778
-0.00250951
-0.00317105
-0.00383751
-0.00450417
-0.0051665
-0.00582012
-0.00646087
-0.0070848
-0.00768816
-0.0082674
-0.00881922
-0.00934051
-0.00982837
-0.0102801
-0.0106933
-0.0110655
-0.0113948
-0.0116792
-0.011917
-0.0121066
-0.0122467
-0.012336
-0.0123736
-0.0123585
-0.0122899
-0.0121673
-0.0119901
-0.0117581
-0.011471
-0.0111287
-0.0107313
-0.0102789
-0.00977172
-0.00921013
-0.00859459
-0.00792564
-0.00720394
-0.0064302
-0.00560524
-0.00472998
-0.00380538
-0.0028325
-0.00181248
-0.00074651
0.000364135
0.00151812
0.00271405
0.00395046
0.00522585
0.00653863
0.00788718
0.00926983
0.0106849
0.0121305
0.0136049
0.0151063
0.0166326
0.0181821
0.0197528
0.0213426
0.0229495
0.0245714
0.0262064
0.0278522
0.0295067
0.0311679
0.0328335
0.0345013
0.0361692
0.037835
0.0394965
0.0411515
0.0427978
0.0444332
0.0460555
0.0476625
0.0492521
0.0508221
0.0523704
0.0538949
0.0553935
0.0568641
0.0583047
0.0597134
0.0610883
0.0624273
0.0637287
0.0649907
0.0662115
0.0673895
0.0685231
0.0696107
0.0706508
0.0716421
0.0725832
0.0734729
0.0743102
0.0750939
0.0758231
0.0764969
0.0771148
0.0776759
0.0781799
0.0786264
0.0790151
0.0793458
0.0796187
0.0798339
0.0799917
0.0800924
0.0801369
0.0801257
0.0800599
0.0799405
0.0797688
0.0795463
0.0792745
0.0789553
0.0785907
0.0781829
0.0777342
0.0772472
0.0767248
0.0761699
0.0755856
0.0749754
0.074343
0.073692
0.0730265
0.0723506
0.0716688
0.0709856
0.0703057
0.0696338
0.068975
0.0683344
0.0677171
0.0671282
0.0665729
0.0660563
0.0655836
0.0651596
0.0647893
0.0644777
0.0642301
0.0640496
0.0639343
0.00426408
0.00402874
0.00375666
0.00343788
0.00306546
0.00264441
0.00217971
0.00167566
0.00113669
0.000567385
-2.76074e-05
-0.000643621
-0.001276
-0.00192012
-0.00257143
-0.00322549
-0.00387797
-0.00452468
-0.00516159
-0.00578484
-0.00639074
-0.00697579
-0.0075367
-0.00807033
-0.00857377
-0.00904427
-0.00947931
-0.00987651
-0.0102337
-0.0105489
-0.0108203
-0.0110462
-0.0112252
-0.0113559
-0.0114372
-0.0114681
-0.0114476
-0.0113751
-0.01125
-0.0110718
-0.0108402
-0.0105549
-0.010216
-0.0098233
-0.00937706
-0.00887748
-0.00832491
-0.00771977
-0.0070626
-0.00635402
-0.00559472
-0.00478551
-0.00392724
-0.00302088
-0.00206743
-0.00106801
-2.37621e-05
0.00106407
0.00219418
0.00336523
0.00457579
0.00582438
0.00710949
0.00842952
0.00978286
0.0111678
0.0125826
0.0140256
0.0154949
0.0169887
0.018505
0.020042
0.0215977
0.0231702
0.0247574
0.0263573
0.0279679
0.029587
0.0312126
0.0328425
0.0344747
0.036107
0.0377372
0.0393633
0.040983
0.0425943
0.0441949
0.0457828
0.0473558
0.0489118
0.0504486
0.0519643
0.0534568
0.054924
0.0563639
0.0577746
0.0591541
0.0605005
0.061812
0.0630868
0.0643231
0.0655193
0.0666736
0.0677846
0.0688507
0.0698706
0.0708427
0.071766
0.0726391
0.073461
0.0742307
0.0749472
0.0756098
0.0762177
0.0767704
0.0772673
0.0777082
0.0780927
0.0784208
0.0786924
0.0789078
0.0790672
0.0791711
0.07922
0.0792148
0.0791562
0.0790455
0.0788837
0.0786723
0.0784129
0.0781072
0.077757
0.0773646
0.0769322
0.0764622
0.0759574
0.0754205
0.0748546
0.0742628
0.0736487
0.0730157
0.0723676
0.0717084
0.0710421
0.0703729
0.0697052
0.0690435
0.0683922
0.0677561
0.0671399
0.0665482
0.0659856
0.0654569
0.0649665
0.0645189
0.0641183
0.0637696
0.0634774
0.063238
0.0630439
0.00523137
0.00490998
0.00457261
0.00420331
0.00378784
0.00333081
0.00283698
0.00231003
0.00175377
0.00117224
0.000569567
-5.00822e-05
-0.000682524
-0.00132359
-0.00196916
-0.00261517
-0.00325768
-0.00389284
-0.00451694
-0.00512641
-0.00571783
-0.00628795
-0.00683368
-0.00735211
-0.00784049
-0.00829624
-0.00871698
-0.00910048
-0.00944468
-0.00974769
-0.0100078
-0.0102234
-0.0103931
-0.0105157
-0.01059
-0.010615
-0.01059
-0.0105142
-0.0103871
-0.0102082
-0.00997722
-0.00969394
-0.00935827
-0.00897023
-0.00852995
-0.00803766
-0.00749368
-0.00689843
-0.00625242
-0.00555626
-0.00481062
-0.00401627
-0.00317405
-0.00228489
-0.00134978
-0.000369778
0.000653981
0.0017203
0.00282791
0.00397551
0.0051617
0.00638505
0.00764408
0.00893724
0.0102629
0.0116196
0.0130054
0.0144187
0.0158578
0.0173208
0.0188059
0.0203113
0.021835
0.023375
0.0249295
0.0264964
0.0280738
0.0296596
0.0312517
0.0328481
0.0344468
0.0360455
0.0376424
0.0392351
0.0408218
0.0424001
0.0439681
0.0455237
0.0470648
0.0485892
0.0500951
0.0515802
0.0530427
0.0544804
0.0558916
0.0572742
0.0586263
0.0599462
0.061232
0.0624818
0.0636942
0.0648673
0.0659995
0.0670895
0.0681355
0.0691364
0.0700908
0.0709973
0.0718549
0.0726625
0.0734191
0.0741238
0.0747758
0.0753744
0.0759191
0.0764093
0.0768448
0.0772253
0.0775506
0.0778209
0.0780362
0.0781969
0.0783033
0.0783561
0.0783559
0.0783036
0.0782003
0.0780471
0.0778454
0.0775966
0.0773024
0.0769647
0.0765855
0.076167
0.0757114
0.0752214
0.0746995
0.0741488
0.0735721
0.0729728
0.0723541
0.0717196
0.0710729
0.0704179
0.0697585
0.0690986
0.0684425
0.0677942
0.067158
0.0665381
0.0659389
0.0653645
0.0648191
0.0643067
0.0638311
0.0633961
0.0630061
0.0626657
0.0623639
0.0620876
0.00624949
0.00584014
0.00543504
0.00501236
0.00455059
0.00405404
0.00352737
0.00297361
0.00239604
0.00179817
0.00118365
0.000556171
-8.05157e-05
-0.000722669
-0.00136656
-0.00200852
-0.00264495
-0.00327231
-0.00388722
-0.00448638
-0.00506663
-0.00562496
-0.0061585
-0.00666452
-0.00714047
-0.00758394
-0.00799268
-0.00836459
-0.00869774
-0.00899035
-0.00924077
-0.00944754
-0.0096093
-0.00972486
-0.00979318
-0.00981331
-0.00978448
-0.00970602
-0.00957739
-0.00939817
-0.00916806
-0.00888687
-0.00855451
-0.00817101
-0.00773649
-0.00725117
-0.00671538
-0.00612951
-0.00549408
-0.00480966
-0.00407691
-0.00329658
-0.00246949
-0.00159654
-0.000678686
0.000283033
0.00128752
0.0023336
0.00342005
0.00454558
0.00570885
0.00690847
0.00814297
0.00941086
0.0107106
0.0120406
0.0133991
0.0147846
0.0161953
0.0176294
0.0190852
0.0205608
0.0220544
0.023564
0.0250877
0.0266237
0.0281699
0.0297244
0.0312851
0.0328501
0.0344173
0.0359847
0.0375502
0.0391117
0.0406673
0.0422149
0.0437524
0.0452777
0.0467889
0.0482838
0.0497606
0.0512172
0.0526516
0.054062
0.0554462
0.0568026
0.0581293
0.0594244
0.0606861
0.0619128
0.0631027
0.0642544
0.0653661
0.0664363
0.0674638
0.068447
0.0693848
0.0702758
0.0711189
0.0719132
0.0726575
0.0733512
0.0739933
0.0745832
0.0751203
0.0756043
0.0760347
0.0764112
0.0767339
0.0770027
0.0772177
0.0773792
0.0774876
0.0775435
0.0775476
0.0775006
0.0774036
0.0772577
0.0770642
0.0768244
0.0765401
0.0762129
0.0758448
0.0754378
0.0749942
0.0745163
0.0740067
0.0734682
0.0729035
0.0723156
0.0717078
0.0710833
0.0704455
0.0697979
0.0691442
0.0684881
0.0678334
0.0671839
0.0665434
0.0659158
0.0653049
0.0647145
0.0641484
0.06361
0.0631028
0.0626297
0.0621952
0.0618036
0.0614369
0.0610763
0.00730813
0.00680981
0.00633535
0.00585711
0.00534646
0.0048075
0.00424481
0.0036609
0.00305849
0.00244065
0.00181057
0.00117152
0.000526824
-0.000120165
-0.000766094
-0.00140764
-0.00204153
-0.00266457
-0.00327362
-0.00386569
-0.00443785
-0.00498732
-0.00551145
-0.00600771
-0.00647372
-0.00690723
-0.00730613
-0.00766847
-0.00799243
-0.00827633
-0.00851864
-0.00871796
-0.00887303
-0.00898273
-0.00904604
-0.00906211
-0.00903018
-0.00894963
-0.00881995
-0.00864075
-0.00841175
-0.00813276
-0.00780372
-0.00742465
-0.00699569
-0.00651705
-0.00598905
-0.00541209
-0.00478666
-0.00411332
-0.00339272
-0.00262559
-0.00181273
-0.000955009
-5.33707e-05
0.000891178
0.00187756
0.00290465
0.00397124
0.00507607
0.00621784
0.00739519
0.00860669
0.00985088
0.0111262
0.0124312
0.0137642
0.0151236
0.0165077
0.0179148
0.019343
0.0207907
0.0222561
0.0237372
0.0252321
0.0267391
0.0282562
0.0297814
0.0313127
0.0328483
0.0343861
0.0359241
0.0374603
0.0389927
0.0405193
0.0420381
0.0435471
0.0450442
0.0465275
0.047995
0.0494447
0.0508746
0.0522829
0.0536677
0.055027
0.056359
0.0576619
0.058934
0.0601734
0.0613785
0.0625477
0.0636794
0.064772
0.0658241
0.0668342
0.0678011
0.0687234
0.0696
0.0704298
0.0712116
0.0719447
0.072628
0.0732609
0.0738427
0.0743728
0.0748508
0.0752763
0.0756491
0.0759691
0.0762363
0.0764507
0.0766127
0.0767227
0.0767811
0.0767886
0.076746
0.0766543
0.0765145
0.0763278
0.0760956
0.0758194
0.0755008
0.0751418
0.0747442
0.0743102
0.073842
0.0733421
0.0728129
0.0722573
0.0716779
0.0710777
0.0704598
0.0698274
0.0691837
0.0685321
0.067876
0.067219
0.0665644
0.0659158
0.0652766
0.0646503
0.0640404
0.0634499
0.0628823
0.0623401
0.0618261
0.0613445
0.0608994
0.060466
0.0600198
0.00839791
0.00781032
0.00726548
0.0067301
0.00616855
0.00558482
0.00498347
0.00436652
0.00373624
0.00309525
0.00244633
0.00179235
0.00113627
0.000481067
-0.000170256
-0.000814706
-0.00144932
-0.0020712
-0.00267748
-0.00326542
-0.00383235
-0.0043757
-0.00489303
-0.00538199
-0.00584038
-0.0062661
-0.00665721
-0.00701188
-0.0073284
-0.00760522
-0.00784089
-0.00803411
-0.00818369
-0.00828858
-0.00834783
-0.00836064
-0.0083263
-0.00824422
-0.00811394
-0.00793509
-0.00770741
-0.00743073
-0.00710501
-0.00673029
-0.00630669
-0.00583444
-0.00531385
-0.00474532
-0.00412933
-0.00346643
-0.00275726
-0.00200252
-0.00120301
-0.000359575
0.000526868
0.00145533
0.00242477
0.00343407
0.00448207
0.00556754
0.00668919
0.0078457
0.00903569
0.0102577
0.0115103
0.0127919
0.014101
0.015436
0.0167952
0.018177
0.0195796
0.0210012
0.0224402
0.0238946
0.0253628
0.0268427
0.0283325
0.0298304
0.0313343
0.0328425
0.0343528
0.0358635
0.0373724
0.0388777
0.0403773
0.0418693
0.0433517
0.0448226
0.04628
0.0477219
0.0491465
0.0505517
0.0519358
0.0532968
0.054633
0.0559424
0.0572233
0.058474
0.0596928
0.060878
0.062028
0.0631412
0.0642162
0.0652515
0.0662456
0.0671974
0.0681055
0.0689688
0.0697862
0.0705566
0.0712792
0.071953
0.0725773
0.0731516
0.0736751
0.0741475
0.0745684
0.0749376
0.0752549
0.0755204
0.0757341
0.0758963
0.0760073
0.0760676
0.0760779
0.0760388
0.0759513
0.0758164
0.0756353
0.0754091
0.0751395
0.0748279
0.0744761
0.0740859
0.0736593
0.0731985
0.0727058
0.0721834
0.071634
0.0710602
0.0704647
0.0698504
0.0692201
0.0685771
0.0679242
0.0672647
0.0666018
0.0659387
0.0652785
0.0646244
0.0639795
0.0633466
0.0627289
0.0621289
0.0615492
0.0609917
0.0604609
0.0599607
0.0594595
0.0589273
0.00951033
0.00883366
0.00821793
0.00762431
0.00701032
0.00637992
0.00573772
0.00508531
0.00442452
0.0037576
0.00308695
0.00241509
0.0017446
0.00107815
0.000418392
-0.000231972
-0.000870279
-0.0014939
-0.00210024
-0.0026868
-0.00325114
-0.0037909
-0.00430384
-0.0047878
-0.00524074
-0.00566074
-0.00604597
-0.00639475
-0.0067055
-0.00697675
-0.00720718
-0.00739556
-0.00754079
-0.00764188
-0.00769796
-0.00770828
-0.00767217
-0.00758911
-0.00745865
-0.00728045
-0.0070543
-0.00678004
-0.00645764
-0.00608716
-0.00566873
-0.00520258
-0.00468902
-0.00412846
-0.00352136
-0.00286826
-0.00216981
-0.00142669
-0.000639671
0.000190411
0.00106266
0.0019761
0.00292972
0.00392242
0.00495307
0.00602047
0.00712337
0.00826045
0.00943038
0.0106317
0.0118631
0.013123
0.0144098
0.015722
0.0170581
0.0184163
0.0197949
0.0211923
0.0226067
0.0240364
0.0254795
0.0269343
0.0283988
0.0298713
0.0313498
0.0328324
0.0343173
0.0358025
0.0372862
0.0387662
0.0402408
0.041708
0.0431659
0.0446124
0.0460458
0.0474641
0.0488654
0.0502478
0.0516095
0.0529486
0.0542634
0.055552
0.0568126
0.0580437
0.0592434
0.0604102
0.0615426
0.0626388
0.0636976
0.0647174
0.0656969
0.0666348
0.0675299
0.0683809
0.0691869
0.0699468
0.0706597
0.0713248
0.0719413
0.0725086
0.073026
0.0734932
0.0739098
0.0742755
0.0745902
0.0748539
0.0750667
0.0752287
0.0753404
0.075402
0.0754144
0.075378
0.0752938
0.0751628
0.0749859
0.0747645
0.0745
0.0741937
0.0738473
0.0734626
0.0730415
0.0725859
0.072098
0.07158
0.0710343
0.0704634
0.0698698
0.0692561
0.0686252
0.0679797
0.0673225
0.0666566
0.0659847
0.06531
0.0646351
0.063963
0.0632964
0.0626379
0.0619901
0.0613554
0.0607358
0.0601329
0.0595513
0.0589947
0.058425
0.057807
0.0106376
0.00987248
0.00918573
0.00853315
0.00786558
0.00718702
0.00650218
0.00581227
0.00511873
0.00442348
0.00372857
0.0030362
0.00234862
0.00166818
0.000997264
0.000338261
-0.000306434
-0.000934447
-0.00154344
-0.00213114
-0.00269532
-0.00323384
-0.00374463
-0.00422573
-0.00467525
-0.00509143
-0.00547258
-0.00581715
-0.00612367
-0.0063908
-0.00661729
-0.00680203
-0.00694398
-0.00704223
-0.00709598
-0.00710453
-0.00706728
-0.00698372
-0.00685347
-0.00667623
-0.00645179
-0.00618004
-0.00586095
-0.0054946
-0.00508114
-0.00462081
-0.00411391
-0.00356085
-0.0029621
-0.0023182
-0.00162976
-0.000897485
-0.000122117
0.000695522
0.00155455
0.00245401
0.00339291
0.00437018
0.00538471
0.00643531
0.00752077
0.00863981
0.0097911
0.0109733
0.0121849
0.0134246
0.0146907
0.0159819
0.0172964
0.0186327
0.0199892
0.0213641
0.0227558
0.0241625
0.0255824
0.0270139
0.028455
0.0299039
0.0313588
0.0328179
0.0342793
0.035741
0.0372012
0.038658
0.0401095
0.0415538
0.042989
0.0444131
0.0458244
0.0472209
0.0486008
0.0499622
0.0513033
0.0526223
0.0539174
0.0551869
0.0564289
0.057642
0.0588243
0.0599743
0.0610904
0.0621712
0.0632151
0.0642208
0.0651869
0.0661122
0.0669953
0.0678352
0.0686309
0.0693812
0.0700853
0.0707424
0.0713516
0.0719125
0.0724243
0.0728867
0.0732992
0.0736616
0.0739738
0.0742357
0.0744474
0.074609
0.0747209
0.0747834
0.0747972
0.0747628
0.074681
0.0745528
0.0743792
0.0741613
0.0739004
0.0735979
0.0732553
0.0728743
0.0724567
0.0720043
0.0715191
0.0710033
0.0704589
0.0698884
0.0692941
0.0686785
0.0680441
0.0673935
0.0667292
0.0660539
0.0653703
0.0646811
0.0639888
0.0632959
0.062605
0.0619184
0.0612383
0.0605667
0.0599053
0.0592555
0.0586218
0.0580081
0.0573697
0.0566661
0.0117728
0.01092
0.0101624
0.00945046
0.00872852
0.00800065
0.00727172
0.00654261
0.00581442
0.00508876
0.0043674
0.0036522
0.00294515
0.0022483
0.00156376
0.000893657
0.00024013
-0.000394692
-0.00100871
-0.00159985
-0.00216612
-0.00270555
-0.00321627
-0.00369648
-0.00414447
-0.0045586
-0.00493735
-0.00527927
-0.00558302
-0.00584736
-0.00607116
-0.00625336
-0.00639304
-0.00648935
-0.00654156
-0.00654902
-0.00651119
-0.00642762
-0.00629795
-0.00612192
-0.00589936
-0.00563018
-0.00531439
-0.00495206
-0.00454337
-0.00408855
-0.00358794
-0.00304193
-0.00245099
-0.00181567
-0.00113657
-0.00041438
0.000350166
0.00115626
0.00200302