/*--------------------------------*- C++ -*----------------------------------*\
  =========                 |
  \\      /  F ield         | OpenFOAM: The Open Source CFD Toolbox
   \\    /   O peration     | Website:  https://openfoam.org
    \\  /    A nd           | Version:  7
     \\/     M anipulation  |
\*---------------------------------------------------------------------------*/
FoamFile
{
    version     2.0;
    format      ascii;
    class       volVectorField;
    location    "0.3625";
    object      U;
}
// * * * * * * * * * * * * * * * * * * * * * * * * * * * * * * * * * * * * * //

dimensions      [0 1 -1 0 0 0 0];

internalField   nonuniform List<vector> 
25600
(
(1.69736e-07 -2.14806e-07 0)
(2.82349e-06 -1.79983e-06 0)
(9.06805e-06 -2.8353e-06 0)
(1.69233e-05 -3.20758e-06 0)
(2.4883e-05 -3.12366e-06 0)
(3.19997e-05 -2.7458e-06 0)
(3.7621e-05 -2.1811e-06 0)
(4.12974e-05 -1.50062e-06 0)
(4.27295e-05 -7.50779e-07 0)
(4.17242e-05 3.80568e-08 0)
(3.81641e-05 8.45464e-07 0)
(3.19865e-05 1.6573e-06 0)
(2.31701e-05 2.46351e-06 0)
(1.17244e-05 3.25681e-06 0)
(-2.31774e-06 4.03187e-06 0)
(-1.8905e-05 4.78474e-06 0)
(-3.79721e-05 5.51246e-06 0)
(-5.94429e-05 6.21282e-06 0)
(-8.32326e-05 6.88419e-06 0)
(-0.00010925 7.52534e-06 0)
(-0.000137398 8.13543e-06 0)
(-0.000167577 8.71384e-06 0)
(-0.000199684 9.2602e-06 0)
(-0.000233612 9.77432e-06 0)
(-0.000269257 1.02561e-05 0)
(-0.000306509 1.07056e-05 0)
(-0.00034526 1.1123e-05 0)
(-0.000385404 1.15084e-05 0)
(-0.000426831 1.18622e-05 0)
(-0.000469434 1.21847e-05 0)
(-0.000513107 1.24763e-05 0)
(-0.000557745 1.27373e-05 0)
(-0.000603242 1.29683e-05 0)
(-0.000649496 1.31696e-05 0)
(-0.000696404 1.33419e-05 0)
(-0.000743867 1.34855e-05 0)
(-0.000791786 1.36011e-05 0)
(-0.000840064 1.36892e-05 0)
(-0.000888605 1.37504e-05 0)
(-0.000937316 1.37851e-05 0)
(-0.000986105 1.37941e-05 0)
(-0.00103488 1.37778e-05 0)
(-0.00108356 1.37368e-05 0)
(-0.00113205 1.36718e-05 0)
(-0.00118028 1.35833e-05 0)
(-0.00122815 1.34719e-05 0)
(-0.00127559 1.33383e-05 0)
(-0.00132253 1.31829e-05 0)
(-0.00136888 1.30064e-05 0)
(-0.00141457 1.28095e-05 0)
(-0.00145953 1.25926e-05 0)
(-0.00150369 1.23565e-05 0)
(-0.00154698 1.21016e-05 0)
(-0.00158934 1.18286e-05 0)
(-0.0016307 1.15381e-05 0)
(-0.00167101 1.12307e-05 0)
(-0.0017102 1.09069e-05 0)
(-0.00174822 1.05675e-05 0)
(-0.00178501 1.02129e-05 0)
(-0.00182051 9.84378e-06 0)
(-0.00185469 9.46073e-06 0)
(-0.00188749 9.06436e-06 0)
(-0.00191885 8.65525e-06 0)
(-0.00194875 8.23402e-06 0)
(-0.00197714 7.80127e-06 0)
(-0.00200397 7.3576e-06 0)
(-0.00202921 6.90363e-06 0)
(-0.00205282 6.43998e-06 0)
(-0.00207478 5.96726e-06 0)
(-0.00209504 5.48608e-06 0)
(-0.00211358 4.99709e-06 0)
(-0.00213038 4.5009e-06 0)
(-0.00214541 3.99815e-06 0)
(-0.00215864 3.48948e-06 0)
(-0.00217006 2.97553e-06 0)
(-0.00217966 2.45697e-06 0)
(-0.0021874 1.93443e-06 0)
(-0.00219329 1.40859e-06 0)
(-0.00219731 8.80114e-07 0)
(-0.00219946 3.49672e-07 0)
(-0.00219972 -1.82051e-07 0)
(-0.0021981 -7.14366e-07 0)
(-0.00219459 -1.24657e-06 0)
(-0.0021892 -1.77797e-06 0)
(-0.00218193 -2.30785e-06 0)
(-0.00217279 -2.83549e-06 0)
(-0.00216178 -3.36017e-06 0)
(-0.00214893 -3.88117e-06 0)
(-0.00213423 -4.39775e-06 0)
(-0.00211772 -4.90916e-06 0)
(-0.00209942 -5.41467e-06 0)
(-0.00207933 -5.9135e-06 0)
(-0.0020575 -6.40492e-06 0)
(-0.00203394 -6.88815e-06 0)
(-0.00200869 -7.36242e-06 0)
(-0.00198178 -7.82698e-06 0)
(-0.00195325 -8.28104e-06 0)
(-0.00192314 -8.72383e-06 0)
(-0.00189148 -9.15458e-06 0)
(-0.00185833 -9.5725e-06 0)
(-0.00182372 -9.97681e-06 0)
(-0.00178772 -1.03667e-05 0)
(-0.00175036 -1.07415e-05 0)
(-0.00171172 -1.11003e-05 0)
(-0.00167184 -1.14425e-05 0)
(-0.00163078 -1.17671e-05 0)
(-0.00158861 -1.20736e-05 0)
(-0.0015454 -1.2361e-05 0)
(-0.00150121 -1.26288e-05 0)
(-0.00145612 -1.28761e-05 0)
(-0.00141019 -1.31021e-05 0)
(-0.00136351 -1.33063e-05 0)
(-0.00131615 -1.34879e-05 0)
(-0.00126819 -1.36462e-05 0)
(-0.00121972 -1.37805e-05 0)
(-0.00117083 -1.38902e-05 0)
(-0.00112159 -1.39746e-05 0)
(-0.0010721 -1.40331e-05 0)
(-0.00102246 -1.40652e-05 0)
(-0.000972747 -1.40701e-05 0)
(-0.000923068 -1.40475e-05 0)
(-0.000873519 -1.39967e-05 0)
(-0.000824197 -1.39172e-05 0)
(-0.000775204 -1.38086e-05 0)
(-0.000726643 -1.36705e-05 0)
(-0.000678616 -1.35023e-05 0)
(-0.000631229 -1.33038e-05 0)
(-0.000584586 -1.30746e-05 0)
(-0.000538795 -1.28143e-05 0)
(-0.000493964 -1.25229e-05 0)
(-0.000450199 -1.21999e-05 0)
(-0.000407609 -1.18454e-05 0)
(-0.000366302 -1.14591e-05 0)
(-0.000326387 -1.10411e-05 0)
(-0.00028797 -1.05914e-05 0)
(-0.000251158 -1.011e-05 0)
(-0.000216057 -9.59716e-06 0)
(-0.000182771 -9.05325e-06 0)
(-0.000151402 -8.47868e-06 0)
(-0.000122049 -7.87408e-06 0)
(-9.48074e-05 -7.24021e-06 0)
(-6.97695e-05 -6.57808e-06 0)
(-4.70216e-05 -5.88897e-06 0)
(-2.66438e-05 -5.17447e-06 0)
(-8.70835e-06 -4.43665e-06 0)
(6.72235e-06 -3.6781e-06 0)
(1.95982e-05 -2.90221e-06 0)
(2.98844e-05 -2.11337e-06 0)
(3.75655e-05 -1.31736e-06 0)
(4.26509e-05 -5.22006e-07 0)
(4.51818e-05 2.62137e-07 0)
(4.52413e-05 1.02048e-06 0)
(4.29677e-05 1.73239e-06 0)
(3.85751e-05 2.36749e-06 0)
(3.23835e-05 2.87942e-06 0)
(2.48621e-05 3.1973e-06 0)
(1.66779e-05 3.21556e-06 0)
(8.78216e-06 2.77818e-06 0)
(2.64734e-06 1.69402e-06 0)
(1.23574e-07 1.20735e-07 0)
(1.77172e-06 -2.89085e-06 0)
(9.37143e-06 -9.42256e-06 0)
(2.31288e-05 -1.34225e-05 0)
(3.93695e-05 -1.47306e-05 0)
(5.5251e-05 -1.39651e-05 0)
(6.87807e-05 -1.16969e-05 0)
(7.84192e-05 -8.36624e-06 0)
(8.30093e-05 -4.30215e-06 0)
(8.17192e-05 2.54873e-07 0)
(7.3971e-05 5.13004e-06 0)
(5.93814e-05 1.01947e-05 0)
(3.77177e-05 1.53531e-05 0)
(8.86442e-06 2.05327e-05 0)
(-2.72022e-05 2.56784e-05 0)
(-7.0434e-05 3.07475e-05 0)
(-0.000120726 3.57071e-05 0)
(-0.000177928 4.05315e-05 0)
(-0.000241855 4.52006e-05 0)
(-0.000312292 4.96987e-05 0)
(-0.000389003 5.40136e-05 0)
(-0.000471731 5.8136e-05 0)
(-0.00056021 6.20586e-05 0)
(-0.000654158 6.57762e-05 0)
(-0.000753287 6.92849e-05 0)
(-0.000857304 7.25822e-05 0)
(-0.000965909 7.56665e-05 0)
(-0.0010788 7.85371e-05 0)
(-0.00119568 8.1194e-05 0)
(-0.00131623 8.36379e-05 0)
(-0.00144017 8.58699e-05 0)
(-0.00156717 8.78916e-05 0)
(-0.00169695 8.9705e-05 0)
(-0.00182921 9.13124e-05 0)
(-0.00196365 9.27162e-05 0)
(-0.00209998 9.39194e-05 0)
(-0.00223792 9.49249e-05 0)
(-0.00237717 9.5736e-05 0)
(-0.00251746 9.63558e-05 0)
(-0.00265851 9.6788e-05 0)
(-0.00280006 9.7036e-05 0)
(-0.00294185 9.71036e-05 0)
(-0.0030836 9.69945e-05 0)
(-0.00322506 9.67125e-05 0)
(-0.003366 9.62615e-05 0)
(-0.00350615 9.56454e-05 0)
(-0.0036453 9.48683e-05 0)
(-0.00378319 9.3934e-05 0)
(-0.00391962 9.28468e-05 0)
(-0.00405434 9.16105e-05 0)
(-0.00418716 9.02294e-05 0)
(-0.00431787 8.87076e-05 0)
(-0.00444625 8.70491e-05 0)
(-0.00457212 8.52582e-05 0)
(-0.00469527 8.3339e-05 0)
(-0.00481554 8.12956e-05 0)
(-0.00493273 7.91323e-05 0)
(-0.00504668 7.68532e-05 0)
(-0.00515722 7.44626e-05 0)
(-0.00526418 7.19647e-05 0)
(-0.00536742 6.93636e-05 0)
(-0.00546679 6.66638e-05 0)
(-0.00556215 6.38693e-05 0)
(-0.00565335 6.09845e-05 0)
(-0.00574027 5.80138e-05 0)
(-0.0058228 5.49613e-05 0)
(-0.0059008 5.18315e-05 0)
(-0.00597417 4.86287e-05 0)
(-0.00604282 4.53572e-05 0)
(-0.00610663 4.20216e-05 0)
(-0.00616552 3.86263e-05 0)
(-0.00621941 3.51756e-05 0)
(-0.00626821 3.16742e-05 0)
(-0.00631186 2.81265e-05 0)
(-0.0063503 2.45371e-05 0)
(-0.00638346 2.09107e-05 0)
(-0.00641129 1.72519e-05 0)
(-0.00643376 1.35654e-05 0)
(-0.00645082 9.85592e-06 0)
(-0.00646244 6.12822e-06 0)
(-0.00646861 2.38713e-06 0)
(-0.0064693 -1.36247e-06 0)
(-0.00646451 -5.1157e-06 0)
(-0.00645423 -8.86758e-06 0)
(-0.00643848 -1.26131e-05 0)
(-0.00641726 -1.63473e-05 0)
(-0.0063906 -2.00649e-05 0)
(-0.00635853 -2.3761e-05 0)
(-0.00632107 -2.74303e-05 0)
(-0.00627828 -3.10677e-05 0)
(-0.00623021 -3.46678e-05 0)
(-0.00617691 -3.82254e-05 0)
(-0.00611845 -4.17352e-05 0)
(-0.0060549 -4.51918e-05 0)
(-0.00598636 -4.85899e-05 0)
(-0.0059129 -5.19241e-05 0)
(-0.00583462 -5.51889e-05 0)
(-0.00575164 -5.8379e-05 0)
(-0.00566406 -6.14888e-05 0)
(-0.005572 -6.4513e-05 0)
(-0.00547561 -6.74462e-05 0)
(-0.005375 -7.02828e-05 0)
(-0.00527034 -7.30175e-05 0)
(-0.00516177 -7.56448e-05 0)
(-0.00504944 -7.81594e-05 0)
(-0.00493355 -8.05559e-05 0)
(-0.00481425 -8.2829e-05 0)
(-0.00469173 -8.49736e-05 0)
(-0.00456619 -8.69843e-05 0)
(-0.00443782 -8.88561e-05 0)
(-0.00430683 -9.05838e-05 0)
(-0.00417343 -9.21626e-05 0)
(-0.00403785 -9.35874e-05 0)
(-0.00390031 -9.48536e-05 0)
(-0.00376104 -9.59565e-05 0)
(-0.0036203 -9.68914e-05 0)
(-0.00347832 -9.7654e-05 0)
(-0.00333536 -9.824e-05 0)
(-0.00319168 -9.86452e-05 0)
(-0.00304754 -9.88656e-05 0)
(-0.00290322 -9.88976e-05 0)
(-0.00275899 -9.87374e-05 0)
(-0.00261514 -9.83817e-05 0)
(-0.00247194 -9.78273e-05 0)
(-0.00232969 -9.70712e-05 0)
(-0.00218868 -9.61108e-05 0)
(-0.00204921 -9.49437e-05 0)
(-0.00191158 -9.35676e-05 0)
(-0.0017761 -9.19807e-05 0)
(-0.00164305 -9.01817e-05 0)
(-0.00151276 -8.81693e-05 0)
(-0.00138553 -8.59428e-05 0)
(-0.00126166 -8.35021e-05 0)
(-0.00114146 -8.08474e-05 0)
(-0.00102523 -7.79793e-05 0)
(-0.000913289 -7.48994e-05 0)
(-0.000805921 -7.16098e-05 0)
(-0.000703423 -6.81133e-05 0)
(-0.000606083 -6.44138e-05 0)
(-0.000514184 -6.05163e-05 0)
(-0.000427994 -5.64272e-05 0)
(-0.000347773 -5.21543e-05 0)
(-0.000273767 -4.77072e-05 0)
(-0.000206202 -4.30978e-05 0)
(-0.000145285 -3.8341e-05 0)
(-9.11941e-05 -3.34549e-05 0)
(-4.40788e-05 -2.84621e-05 0)
(-4.04771e-06 -2.33906e-05 0)
(2.88381e-05 -1.82758e-05 0)
(5.45771e-05 -1.31624e-05 0)
(7.32423e-05 -8.10762e-06 0)
(8.50003e-05 -3.1858e-06 0)
(9.01358e-05 1.50581e-06 0)
(8.90842e-05 5.83845e-06 0)
(8.24728e-05 9.63905e-06 0)
(7.11776e-05 1.26717e-05 0)
(5.63912e-05 1.46149e-05 0)
(3.96747e-05 1.50432e-05 0)
(2.30138e-05 1.34166e-05 0)
(9.18672e-06 9.18046e-06 0)
(1.6974e-06 2.63787e-06 0)
(2.82262e-06 -9.09871e-06 0)
(1.34014e-05 -2.31706e-05 0)
(3.10631e-05 -3.10749e-05 0)
(5.08326e-05 -3.3138e-05 0)
(6.91093e-05 -3.04582e-05 0)
(8.33322e-05 -2.41291e-05 0)
(9.14188e-05 -1.50785e-05 0)
(9.17275e-05 -4.05131e-06 0)
(8.30259e-05 8.37223e-06 0)
(6.44194e-05 2.17444e-05 0)
(3.5286e-05 3.57207e-05 0)
(-4.77557e-06 5.00347e-05 0)
(-5.59888e-05 6.44789e-05 0)
(-0.000118434 7.88913e-05 0)
(-0.000192077 9.31441e-05 0)
(-0.00027679 0.000107136 0)
(-0.00037237 0.000120788 0)
(-0.000478553 0.000134036 0)
(-0.000595027 0.000146829 0)
(-0.000721438 0.000159128 0)
(-0.000857403 0.0001709 0)
(-0.00100251 0.000182121 0)
(-0.00115633 0.000192773 0)
(-0.00131842 0.000202841 0)
(-0.00148831 0.000212315 0)
(-0.00166555 0.000221188 0)
(-0.00184965 0.000229455 0)
(-0.00204013 0.000237116 0)
(-0.00223652 0.000244168 0)
(-0.00243834 0.000250615 0)
(-0.00264509 0.00025646 0)
(-0.00285631 0.000261707 0)
(-0.00307152 0.000266361 0)
(-0.00329024 0.000270429 0)
(-0.00351201 0.000273918 0)
(-0.00373636 0.000276836 0)
(-0.00396284 0.000279191 0)
(-0.004191 0.000280993 0)
(-0.00442039 0.000282251 0)
(-0.00465058 0.000282974 0)
(-0.00488114 0.000283173 0)
(-0.00511165 0.000282859 0)
(-0.00534169 0.000282042 0)
(-0.00557087 0.000280733 0)
(-0.00579879 0.000278943 0)
(-0.00602506 0.000276683 0)
(-0.00624931 0.000273966 0)
(-0.00647116 0.000270802 0)
(-0.00669026 0.000267203 0)
(-0.00690626 0.000263182 0)
(-0.00711882 0.000258749 0)
(-0.00732761 0.000253917 0)
(-0.00753231 0.000248698 0)
(-0.00773261 0.000243104 0)
(-0.0079282 0.000237147 0)
(-0.0081188 0.000230839 0)
(-0.00830413 0.000224193 0)
(-0.00848391 0.00021722 0)
(-0.00865788 0.000209933 0)
(-0.00882579 0.000202345 0)
(-0.00898739 0.000194467 0)
(-0.00914247 0.000186313 0)
(-0.0092908 0.000177894 0)
(-0.00943216 0.000169224 0)
(-0.00956635 0.000160315 0)
(-0.0096932 0.00015118 0)
(-0.00981251 0.000141831 0)
(-0.00992412 0.000132282 0)
(-0.0100279 0.000122545 0)
(-0.0101236 0.000112634 0)
(-0.0102112 0.000102561 0)
(-0.0102905 9.234e-05 0)
(-0.0103615 8.19841e-05 0)
(-0.0104239 7.15067e-05 0)
(-0.0104778 6.09214e-05 0)
(-0.010523 5.02418e-05 0)
(-0.0105595 3.94818e-05 0)
(-0.0105871 2.86552e-05 0)
(-0.010606 1.7776e-05 0)
(-0.0106159 6.85833e-06 0)
(-0.0106169 -4.0835e-06 0)
(-0.010609 -1.50351e-05 0)
(-0.0105922 -2.5982e-05 0)
(-0.0105665 -3.69095e-05 0)
(-0.0105319 -4.78029e-05 0)
(-0.0104885 -5.86472e-05 0)
(-0.0104362 -6.94276e-05 0)
(-0.0103752 -8.01288e-05 0)
(-0.0103055 -9.07356e-05 0)
(-0.0102273 -0.000101233 0)
(-0.0101405 -0.000111605 0)
(-0.0100454 -0.000121836 0)
(-0.00994195 -0.000131911 0)
(-0.00983041 -0.000141815 0)
(-0.00971089 -0.00015153 0)
(-0.00958354 -0.000161043 0)
(-0.00944855 -0.000170336 0)
(-0.00930609 -0.000179394 0)
(-0.00915637 -0.000188202 0)
(-0.00899959 -0.000196743 0)
(-0.00883599 -0.000205001 0)
(-0.00866579 -0.000212962 0)
(-0.00848925 -0.000220608 0)
(-0.00830663 -0.000227926 0)
(-0.00811821 -0.000234898 0)
(-0.00792427 -0.00024151 0)
(-0.0077251 -0.000247747 0)
(-0.00752103 -0.000253594 0)
(-0.00731238 -0.000259036 0)
(-0.00709948 -0.000264057 0)
(-0.00688268 -0.000268645 0)
(-0.00666233 -0.000272785 0)
(-0.00643881 -0.000276463 0)
(-0.0062125 -0.000279665 0)
(-0.00598379 -0.00028238 0)
(-0.00575307 -0.000284593 0)
(-0.00552077 -0.000286293 0)
(-0.00528729 -0.000287469 0)
(-0.00505307 -0.000288109 0)
(-0.00481855 -0.000288202 0)
(-0.00458418 -0.000287738 0)
(-0.0043504 -0.000286708 0)
(-0.00411768 -0.000285103 0)
(-0.00388648 -0.000282915 0)
(-0.00365727 -0.000280137 0)
(-0.00343054 -0.000276763 0)
(-0.00320677 -0.000272786 0)
(-0.00298644 -0.000268202 0)
(-0.00277003 -0.000263008 0)
(-0.00255804 -0.000257202 0)
(-0.00235096 -0.000250783 0)
(-0.00214927 -0.00024375 0)
(-0.00195347 -0.000236106 0)
(-0.00176404 -0.000227855 0)
(-0.00158144 -0.000219002 0)
(-0.00140617 -0.000209556 0)
(-0.00123867 -0.000199527 0)
(-0.0010794 -0.000188928 0)
(-0.000928801 -0.000177776 0)
(-0.000787284 -0.000166092 0)
(-0.00065525 -0.000153903 0)
(-0.000533072 -0.000141239 0)
(-0.000421091 -0.000128139 0)
(-0.000319611 -0.00011465 0)
(-0.000228893 -0.00010083 0)
(-0.000149142 -8.67478e-05 0)
(-8.0498e-05 -7.24905e-05 0)
(-2.30215e-05 -5.81647e-05 0)
(2.3323e-05 -4.39032e-05 0)
(5.86892e-05 -2.98724e-05 0)
(8.3376e-05 -1.62827e-05 0)
(9.78606e-05 -3.402e-06 0)
(0.000102839 8.42631e-06 0)
(9.92771e-05 1.87611e-05 0)
(8.84663e-05 2.70361e-05 0)
(7.20927e-05 3.25328e-05 0)
(5.22617e-05 3.43679e-05 0)
(3.15233e-05 3.15209e-05 0)
(1.34164e-05 2.30194e-05 0)
(2.77794e-06 8.77087e-06 0)
(3.2055e-06 -1.69413e-05 0)
(1.47491e-05 -3.94225e-05 0)
(3.32076e-05 -5.0856e-05 0)
(5.27174e-05 -5.26124e-05 0)
(6.91726e-05 -4.6429e-05 0)
(7.96616e-05 -3.39788e-05 0)
(8.17718e-05 -1.67209e-05 0)
(7.3553e-05 4.13225e-06 0)
(5.34981e-05 2.76004e-05 0)
(2.0479e-05 5.29007e-05 0)
(-2.63139e-05 7.94117e-05 0)
(-8.74246e-05 0.00010664 0)
(-0.000163177 0.000134193 0)
(-0.000253711 0.000161757 0)
(-0.000359019 0.000189083 0)
(-0.000478966 0.000215969 0)
(-0.000613317 0.000242253 0)
(-0.000761753 0.000267807 0)
(-0.000923886 0.000292524 0)
(-0.00109927 0.000316321 0)
(-0.00128742 0.000339132 0)
(-0.00148779 0.000360902 0)
(-0.00169984 0.000381591 0)
(-0.00192298 0.000401166 0)
(-0.0021566 0.000419604 0)
(-0.0024001 0.000436887 0)
(-0.00265283 0.000453004 0)
(-0.00291417 0.000467948 0)
(-0.00318346 0.000481716 0)
(-0.00346008 0.00049431 0)
(-0.00374337 0.000505734 0)
(-0.00403269 0.000515995 0)
(-0.0043274 0.0005251 0)
(-0.00462686 0.000533063 0)
(-0.00493045 0.000539895 0)
(-0.00523752 0.00054561 0)
(-0.00554748 0.000550224 0)
(-0.0058597 0.000553754 0)
(-0.00617359 0.000556217 0)
(-0.00648855 0.000557633 0)
(-0.006804 0.000558019 0)
(-0.00711938 0.000557397 0)
(-0.00743411 0.000555786 0)
(-0.00774765 0.000553208 0)
(-0.00805946 0.000549684 0)
(-0.00836901 0.000545236 0)
(-0.00867579 0.000539886 0)
(-0.0089793 0.000533656 0)
(-0.00927904 0.00052657 0)
(-0.00957455 0.00051865 0)
(-0.00986534 0.00050992 0)
(-0.010151 0.000500403 0)
(-0.010431 0.000490122 0)
(-0.010705 0.0004791 0)
(-0.0109726 0.000467363 0)
(-0.0112334 0.000454933 0)
(-0.0114869 0.000441835 0)
(-0.0117329 0.000428093 0)
(-0.0119709 0.000413731 0)
(-0.0122006 0.000398774 0)
(-0.0124216 0.000383246 0)
(-0.0126338 0.000367171 0)
(-0.0128367 0.000350575 0)
(-0.0130301 0.000333482 0)
(-0.0132136 0.000315917 0)
(-0.0133871 0.000297906 0)
(-0.0135503 0.000279474 0)
(-0.013703 0.000260646 0)
(-0.0138448 0.000241448 0)
(-0.0139758 0.000221905 0)
(-0.0140955 0.000202044 0)
(-0.014204 0.000181892 0)
(-0.014301 0.000161473 0)
(-0.0143863 0.000140815 0)
(-0.0144599 0.000119945 0)
(-0.0145217 9.88898e-05 0)
(-0.0145715 7.76764e-05 0)
(-0.0146092 5.63324e-05 0)
(-0.0146349 3.48856e-05 0)
(-0.0146484 1.3364e-05 0)
(-0.0146497 -8.20435e-06 0)
(-0.0146388 -2.97909e-05 0)
(-0.0146157 -5.13669e-05 0)
(-0.0145804 -7.29036e-05 0)
(-0.014533 -9.43716e-05 0)
(-0.0144734 -0.000115742 0)
(-0.0144018 -0.000136984 0)
(-0.0143183 -0.000158069 0)
(-0.0142228 -0.000178967 0)
(-0.0141157 -0.000199647 0)
(-0.0139969 -0.000220079 0)
(-0.0138666 -0.000240232 0)
(-0.0137251 -0.000260076 0)
(-0.0135724 -0.000279579 0)
(-0.0134089 -0.000298712 0)
(-0.0132346 -0.000317442 0)
(-0.0130499 -0.000335739 0)
(-0.012855 -0.000353571 0)
(-0.0126502 -0.000370909 0)
(-0.0124357 -0.00038772 0)
(-0.0122119 -0.000403973 0)
(-0.0119791 -0.000419638 0)
(-0.0117377 -0.000434684 0)
(-0.0114879 -0.000449081 0)
(-0.0112302 -0.000462798 0)
(-0.010965 -0.000475804 0)
(-0.0106926 -0.000488072 0)
(-0.0104136 -0.00049957 0)
(-0.0101283 -0.000510271 0)
(-0.00983718 -0.000520145 0)
(-0.00954075 -0.000529166 0)
(-0.00923949 -0.000537304 0)
(-0.00893389 -0.000544535 0)
(-0.00862448 -0.000550831 0)
(-0.00831178 -0.000556168 0)
(-0.00799636 -0.000560521 0)
(-0.00767875 -0.000563866 0)
(-0.00735954 -0.000566181 0)
(-0.00703931 -0.000567445 0)
(-0.00671865 -0.000567637 0)
(-0.00639818 -0.000566738 0)
(-0.00607849 -0.00056473 0)
(-0.00576023 -0.000561596 0)
(-0.00544402 -0.000557322 0)
(-0.00513049 -0.000551893 0)
(-0.00482031 -0.000545299 0)
(-0.00451411 -0.00053753 0)
(-0.00421256 -0.000528577 0)
(-0.0039163 -0.000518436 0)
(-0.003626 -0.000507103 0)
(-0.00334232 -0.000494578 0)
(-0.00306591 -0.000480863 0)
(-0.00279742 -0.000465964 0)
(-0.0025375 -0.00044989 0)
(-0.00228679 -0.000432655 0)
(-0.00204591 -0.000414278 0)
(-0.00181548 -0.00039478 0)
(-0.00159608 -0.000374193 0)
(-0.0013883 -0.000352553 0)
(-0.00119268 -0.000329903 0)
(-0.00100974 -0.0003063 0)
(-0.000839952 -0.000281809 0)
(-0.000683757 -0.00025651 0)
(-0.000541536 -0.0002305 0)
(-0.000413608 -0.000203896 0)
(-0.000300216 -0.00017684 0)
(-0.000201516 -0.000149504 0)
(-0.000117554 -0.000122101 0)
(-4.82514e-05 -9.48879e-05 0)
(6.62685e-06 -6.81859e-05 0)
(4.74979e-05 -4.23907e-05 0)
(7.49998e-05 -1.79958e-05 0)
(9.00337e-05 4.38274e-06 0)
(9.38125e-05 2.39756e-05 0)
(8.7917e-05 3.98293e-05 0)
(7.43515e-05 5.0779e-05 0)
(5.55565e-05 5.54433e-05 0)
(3.44368e-05 5.22683e-05 0)
(1.50598e-05 3.96991e-05 0)
(3.21451e-06 1.66711e-05 0)
(3.1339e-06 -2.492e-05 0)
(1.40435e-05 -5.53701e-05 0)
(3.067e-05 -6.92116e-05 0)
(4.67736e-05 -6.91044e-05 0)
(5.79695e-05 -5.75612e-05 0)
(6.11252e-05 -3.6883e-05 0)
(5.3632e-05 -9.07713e-06 0)
(3.33544e-05 2.41634e-05 0)
(-1.3892e-06 6.14384e-05 0)
(-5.18839e-05 0.000101603 0)
(-0.000119074 0.000143727 0)
(-0.000203613 0.000187057 0)
(-0.000305903 0.00023098 0)
(-0.000426139 0.000275003 0)
(-0.000564337 0.000318723 0)
(-0.000720366 0.000361811 0)
(-0.000893968 0.000404003 0)
(-0.00108478 0.000445082 0)
(-0.00129236 0.00048487 0)
(-0.00151619 0.000523226 0)
(-0.00175568 0.000560034 0)
(-0.00201021 0.0005952 0)
(-0.00227911 0.000628652 0)
(-0.00256167 0.000660332 0)
(-0.00285717 0.000690195 0)
(-0.00316485 0.000718208 0)
(-0.00348395 0.000744349 0)
(-0.00381369 0.000768603 0)
(-0.00415329 0.000790962 0)
(-0.00450195 0.000811424 0)
(-0.00485888 0.000829993 0)
(-0.00522328 0.000846677 0)
(-0.00559437 0.000861489 0)
(-0.00597135 0.000874445 0)
(-0.00635344 0.000885562 0)
(-0.00673987 0.000894864 0)
(-0.00712986 0.000902372 0)
(-0.00752266 0.000908113 0)
(-0.00791751 0.000912115 0)
(-0.00831368 0.000914406 0)
(-0.00871044 0.000915017 0)
(-0.00910708 0.00091398 0)
(-0.0095029 0.000911327 0)
(-0.0098972 0.000907092 0)
(-0.0102893 0.000901309 0)
(-0.0106786 0.000894013 0)
(-0.0110643 0.00088524 0)
(-0.011446 0.000875027 0)
(-0.0118229 0.00086341 0)
(-0.0121945 0.000850426 0)
(-0.0125601 0.000836113 0)
(-0.0129193 0.00082051 0)
(-0.0132714 0.000803653 0)
(-0.0136159 0.000785583 0)
(-0.0139524 0.000766337 0)
(-0.0142803 0.000745956 0)
(-0.014599 0.000724477 0)
(-0.0149083 0.000701941 0)
(-0.0152075 0.000678388 0)
(-0.0154963 0.000653857 0)
(-0.0157743 0.000628388 0)
(-0.016041 0.000602023 0)
(-0.0162961 0.000574802 0)
(-0.0165392 0.000546765 0)
(-0.0167699 0.000517954 0)
(-0.016988 0.00048841 0)
(-0.0171931 0.000458175 0)
(-0.017385 0.00042729 0)
(-0.0175633 0.000395799 0)
(-0.0177279 0.000363742 0)
(-0.0178784 0.000331164 0)
(-0.0180147 0.000298106 0)
(-0.0181365 0.000264613 0)
(-0.0182438 0.000230729 0)
(-0.0183362 0.000196497 0)
(-0.0184137 0.000161962 0)
(-0.0184762 0.000127168 0)
(-0.0185236 9.21619e-05 0)
(-0.0185557 5.69879e-05 0)
(-0.0185726 2.16926e-05 0)
(-0.0185741 -1.36778e-05 0)
(-0.0185603 -4.90766e-05 0)
(-0.0185311 -8.44565e-05 0)
(-0.0184866 -0.00011977 0)
(-0.0184268 -0.000154969 0)
(-0.0183518 -0.000190006 0)
(-0.0182617 -0.000224831 0)
(-0.0181565 -0.000259397 0)
(-0.0180364 -0.000293653 0)
(-0.0179016 -0.000327549 0)
(-0.0177521 -0.000361037 0)
(-0.0175883 -0.000394066 0)
(-0.0174103 -0.000426586 0)
(-0.0172183 -0.000458546 0)
(-0.0170126 -0.000489896 0)
(-0.0167934 -0.000520584 0)
(-0.0165612 -0.00055056 0)
(-0.0163161 -0.000579773 0)
(-0.0160586 -0.000608173 0)
(-0.0157889 -0.000635708 0)
(-0.0155076 -0.000662328 0)
(-0.0152149 -0.000687983 0)
(-0.0149114 -0.000712622 0)
(-0.0145975 -0.000736195 0)
(-0.0142736 -0.000758654 0)
(-0.0139402 -0.00077995 0)
(-0.0135979 -0.000800033 0)
(-0.0132472 -0.000818857 0)
(-0.0128886 -0.000836374 0)
(-0.0125228 -0.000852538 0)
(-0.0121502 -0.000867304 0)
(-0.0117716 -0.000880628 0)
(-0.0113876 -0.000892466 0)
(-0.0109987 -0.000902776 0)
(-0.0106058 -0.000911517 0)
(-0.0102094 -0.00091865 0)
(-0.00981019 -0.000924138 0)
(-0.009409 -0.000927943 0)
(-0.00900651 -0.000930032 0)
(-0.00860346 -0.000930372 0)
(-0.00820061 -0.000928933 0)
(-0.00779872 -0.000925686 0)
(-0.00739857 -0.000920605 0)
(-0.00700095 -0.000913667 0)
(-0.00660665 -0.000904852 0)
(-0.00621648 -0.000894141 0)
(-0.00583124 -0.00088152 0)
(-0.00545175 -0.000866979 0)
(-0.00507882 -0.000850509 0)
(-0.00471327 -0.000832108 0)
(-0.0043559 -0.000811778 0)
(-0.00400753 -0.000789525 0)
(-0.00366895 -0.000765361 0)
(-0.00334097 -0.000739304 0)
(-0.00302436 -0.000711379 0)
(-0.00271988 -0.000681621 0)
(-0.0024283 -0.00065007 0)
(-0.00215031 -0.000616779 0)
(-0.00188663 -0.000581812 0)
(-0.00163791 -0.000545248 0)
(-0.00140476 -0.00050718 0)
(-0.00118776 -0.000467721 0)
(-0.000987411 -0.000427008 0)
(-0.000804169 -0.000385203 0)
(-0.000638395 -0.000342501 0)
(-0.000490359 -0.000299138 0)
(-0.000360223 -0.000255396 0)
(-0.000248016 -0.000211618 0)
(-0.000153618 -0.000168218 0)
(-7.67245e-05 -0.000125701 0)
(-1.68234e-05 -8.46814e-05 0)
(2.68463e-05 -4.59111e-05 0)
(5.53336e-05 -1.03088e-05 0)
(7.00209e-05 2.10041e-05 0)
(7.26755e-05 4.66685e-05 0)
(6.55005e-05 6.50593e-05 0)
(5.11443e-05 7.42765e-05 0)
(3.27449e-05 7.21777e-05 0)
(1.46828e-05 5.64789e-05 0)
(3.20262e-06 2.48742e-05 0)
(2.77244e-06 -3.2094e-05 0)
(1.18589e-05 -6.90512e-05 0)
(2.45439e-05 -8.36256e-05 0)
(3.46696e-05 -7.97553e-05 0)
(3.77889e-05 -6.07821e-05 0)
(3.06556e-05 -2.96627e-05 0)
(1.05627e-05 1.10391e-05 0)
(-2.472e-05 5.91465e-05 0)
(-7.69703e-05 0.000112834 0)
(-0.000147567 0.000170584 0)
(-0.000237539 0.000231141 0)
(-0.000347611 0.000293472 0)
(-0.000478244 0.000356724 0)
(-0.00062967 0.000420198 0)
(-0.000801924 0.000483318 0)
(-0.000994876 0.000545608 0)
(-0.00120825 0.000606681 0)
(-0.00144166 0.000666213 0)
(-0.0016946 0.000723942 0)
(-0.00196649 0.000779651 0)
(-0.00225668 0.000833165 0)
(-0.00256445 0.00088434 0)
(-0.00288904 0.00093306 0)
(-0.00322963 0.000979236 0)
(-0.0035854 0.00102279 0)
(-0.00395546 0.00106368 0)
(-0.00433894 0.00110186 0)
(-0.00473492 0.0011373 0)
(-0.0051425 0.00116999 0)
(-0.00556073 0.00119991 0)
(-0.0059887 0.00122708 0)
(-0.00642547 0.0012515 0)
(-0.00687011 0.00127318 0)
(-0.00732169 0.00129215 0)
(-0.00777928 0.00130842 0)
(-0.00824198 0.00132204 0)
(-0.00870886 0.00133303 0)
(-0.00917904 0.00134142 0)
(-0.00965161 0.00134726 0)
(-0.0101257 0.00135058 0)
(-0.0106005 0.00135143 0)
(-0.0110751 0.00134986 0)
(-0.0115486 0.00134591 0)
(-0.0120204 0.00133963 0)
(-0.0124895 0.00133107 0)
(-0.0129551 0.00132028 0)
(-0.0134166 0.00130732 0)
(-0.0138731 0.00129222 0)
(-0.0143239 0.00127506 0)
(-0.0147684 0.00125588 0)
(-0.0152057 0.00123474 0)
(-0.0156353 0.0012117 0)
(-0.0160565 0.0011868 0)
(-0.0164685 0.00116011 0)
(-0.0168709 0.00113168 0)
(-0.0172631 0.00110158 0)
(-0.0176443 0.00106985 0)
(-0.0180141 0.00103657 0)
(-0.018372 0.00100178 0)
(-0.0187174 0.000965542 0)
(-0.0190498 0.000927921 0)
(-0.0193687 0.000888975 0)
(-0.0196737 0.000848763 0)
(-0.0199644 0.000807347 0)
(-0.0202403 0.000764786 0)
(-0.0205011 0.000721142 0)
(-0.0207464 0.000676477 0)
(-0.0209758 0.000630853 0)
(-0.021189 0.000584332 0)
(-0.0213857 0.000536976 0)
(-0.0215656 0.00048885 0)
(-0.0217285 0.000440018 0)
(-0.0218741 0.000390542 0)
(-0.0220022 0.000340489 0)
(-0.0221126 0.000289924 0)
(-0.0222052 0.000238912 0)
(-0.0222798 0.00018752 0)
(-0.0223363 0.000135815 0)
(-0.0223746 8.38648e-05 0)
(-0.0223946 3.17366e-05 0)
(-0.0223963 -2.05005e-05 0)
(-0.0223797 -7.27773e-05 0)
(-0.0223446 -0.000125024 0)
(-0.0222913 -0.00017717 0)
(-0.0222197 -0.000229146 0)
(-0.0221299 -0.000280878 0)
(-0.0220219 -0.000332296 0)
(-0.0218961 -0.000383328 0)
(-0.0217523 -0.0004339 0)
(-0.021591 -0.000483939 0)
(-0.0214122 -0.000533371 0)
(-0.0212161 -0.000582124 0)
(-0.0210031 -0.000630121 0)
(-0.0207735 -0.00067729 0)
(-0.0205274 -0.000723555 0)
(-0.0202653 -0.000768842 0)
(-0.0199875 -0.000813075 0)
(-0.0196944 -0.000856179 0)
(-0.0193865 -0.000898081 0)
(-0.019064 -0.000938704 0)
(-0.0187276 -0.000977976 0)
(-0.0183777 -0.00101582 0)
(-0.0180148 -0.00105217 0)
(-0.0176394 -0.00108694 0)
(-0.0172521 -0.00112007 0)
(-0.0168536 -0.00115148 0)
(-0.0164443 -0.0011811 0)
(-0.016025 -0.00120886 0)
(-0.0155964 -0.0012347 0)
(-0.015159 -0.00125854 0)
(-0.0147136 -0.00128032 0)
(-0.014261 -0.00129997 0)
(-0.0138019 -0.00131744 0)
(-0.013337 -0.00133266 0)
(-0.0128672 -0.00134557 0)
(-0.0123932 -0.00135611 0)
(-0.011916 -0.00136423 0)
(-0.0114363 -0.00136988 0)
(-0.010955 -0.001373 0)
(-0.010473 -0.00137356 0)
(-0.00999115 -0.0013715 0)
(-0.00951044 -0.00136678 0)
(-0.00903176 -0.00135938 0)
(-0.00855602 -0.00134925 0)
(-0.00808418 -0.00133637 0)
(-0.00761718 -0.00132072 0)
(-0.00715598 -0.00130227 0)
(-0.00670153 -0.00128101 0)
(-0.00625479 -0.00125693 0)
(-0.00581672 -0.00123004 0)
(-0.00538828 -0.00120033 0)
(-0.00497042 -0.00116782 0)
(-0.00456406 -0.00113253 0)
(-0.00417015 -0.0010945 0)
(-0.00378959 -0.00105375 0)
(-0.00342328 -0.00101035 0)
(-0.00307207 -0.000964363 0)
(-0.00273681 -0.000915869 0)
(-0.00241829 -0.000864971 0)
(-0.00211727 -0.000811786 0)
(-0.00183446 -0.00075646 0)
(-0.0015705 -0.000699165 0)
(-0.00132597 -0.000640105 0)
(-0.00110136 -0.000579524 0)
(-0.000897092 -0.000517713 0)
(-0.000713442 -0.000455018 0)
(-0.000550579 -0.000391852 0)
(-0.000408521 -0.000328708 0)
(-0.000287111 -0.00026618 0)
(-0.000185998 -0.000204978 0)
(-0.000104598 -0.000145958 0)
(-4.20656e-05 -9.01478e-05 0)
(2.74501e-06 -3.87856e-05 0)
(3.13208e-05 6.64559e-06 0)
(4.55373e-05 4.43766e-05 0)
(4.77073e-05 7.23176e-05 0)
(4.05954e-05 8.80355e-05 0)
(2.74742e-05 8.87621e-05 0)
(1.28274e-05 7.14171e-05 0)
(2.89952e-06 3.24455e-05 0)
(2.2285e-06 -3.78229e-05 0)
(8.63369e-06 -7.89551e-05 0)
(1.57483e-05 -9.20538e-05 0)
(1.78454e-05 -8.21958e-05 0)
(1.06041e-05 -5.35288e-05 0)
(-9.23764e-06 -9.65838e-06 0)
(-4.44037e-05 4.6302e-05 0)
(-9.71464e-05 0.000111698 0)
(-0.000169277 0.000184284 0)
(-0.000262213 0.000262168 0)
(-0.000377026 0.000343766 0)
(-0.000514479 0.000427754 0)
(-0.000675061 0.000513028 0)
(-0.000859026 0.000598669 0)
(-0.00106642 0.000683911 0)
(-0.0012971 0.000768118 0)
(-0.00155078 0.000850761 0)
(-0.00182705 0.0009314 0)
(-0.00212534 0.00100967 0)
(-0.00244504 0.00108527 0)
(-0.00278542 0.00115795 0)
(-0.00314569 0.00122752 0)
(-0.00352499 0.00129379 0)
(-0.00392244 0.00135664 0)
(-0.00433709 0.00141597 0)
(-0.00476797 0.0014717 0)
(-0.00521407 0.00152376 0)
(-0.00567439 0.0015721 0)
(-0.00614787 0.00161671 0)
(-0.00663349 0.00165757 0)
(-0.00713016 0.00169467 0)
(-0.00763685 0.00172802 0)
(-0.00815249 0.00175764 0)
(-0.00867602 0.00178355 0)
(-0.00920638 0.00180578 0)
(-0.00974254 0.00182437 0)
(-0.0102834 0.00183936 0)
(-0.0108281 0.00185079 0)
(-0.0113754 0.00185873 0)
(-0.0119244 0.00186321 0)
(-0.0124742 0.0018643 0)
(-0.0130236 0.00186206 0)
(-0.0135719 0.00185655 0)
(-0.014118 0.00184784 0)
(-0.0146609 0.00183599 0)
(-0.0151999 0.00182107 0)
(-0.015734 0.00180316 0)
(-0.0162624 0.00178232 0)
(-0.0167842 0.00175862 0)
(-0.0172985 0.00173215 0)
(-0.0178046 0.00170298 0)
(-0.0183017 0.00167118 0)
(-0.0187891 0.00163683 0)
(-0.0192659 0.00160001 0)
(-0.0197315 0.00156079 0)
(-0.0201853 0.00151926 0)
(-0.0206264 0.00147549 0)
(-0.0210543 0.00142957 0)
(-0.0214683 0.00138157 0)
(-0.0218679 0.00133158 0)
(-0.0222525 0.00127968 0)
(-0.0226215 0.00122595 0)
(-0.0229743 0.00117047 0)
(-0.0233106 0.00111333 0)
(-0.0236298 0.00105462 0)
(-0.0239314 0.000994405 0)
(-0.0242151 0.000932784 0)
(-0.0244804 0.000869841 0)
(-0.024727 0.000805661 0)
(-0.0249545 0.000740331 0)
(-0.0251626 0.000673938 0)
(-0.0253509 0.000606572 0)
(-0.0255192 0.00053832 0)
(-0.0256674 0.000469272 0)
(-0.025795 0.00039952 0)
(-0.025902 0.000329153 0)
(-0.0259882 0.000258264 0)
(-0.0260534 0.000186944 0)
(-0.0260976 0.000115289 0)
(-0.0261206 4.33904e-05 0)
(-0.0261224 -2.86555e-05 0)
(-0.026103 -0.000100753 0)
(-0.0260623 -0.000172807 0)
(-0.0260005 -0.00024472 0)
(-0.0259175 -0.000316393 0)
(-0.0258134 -0.000387728 0)
(-0.0256884 -0.000458627 0)