/*--------------------------------*- C++ -*----------------------------------*\
  =========                 |
  \\      /  F ield         | OpenFOAM: The Open Source CFD Toolbox
   \\    /   O peration     | Website:  https://openfoam.org
    \\  /    A nd           | Version:  7
     \\/     M anipulation  |
\*---------------------------------------------------------------------------*/
FoamFile
{
    version     2.0;
    format      ascii;
    class       surfaceScalarField;
    location    "0.4875";
    object      phi;
}
// * * * * * * * * * * * * * * * * * * * * * * * * * * * * * * * * * * * * * //

dimensions      [0 3 -1 0 0 0 0];

internalField   nonuniform List<scalar> 
50880
(
6.1007e-12
-6.12052e-12
3.6294e-11
-3.01559e-11
8.11672e-11
-4.48845e-11
1.30809e-10
-4.96479e-11
1.78063e-10
-4.72609e-11
2.17962e-10
-3.98914e-11
2.47054e-10
-2.90993e-11
2.63032e-10
-1.59877e-11
2.64371e-10
-1.34176e-12
2.50118e-10
1.42685e-11
2.19692e-10
3.04316e-11
1.7283e-10
4.68587e-11
1.09507e-10
6.33229e-11
2.98486e-11
7.96535e-11
-6.58819e-11
9.57244e-11
-1.77314e-10
1.11432e-10
-3.04009e-10
1.26694e-10
-4.45465e-10
1.41453e-10
-6.0113e-10
1.55664e-10
-7.70417e-10
1.69288e-10
-9.52714e-10
1.82297e-10
-1.14738e-09
1.94671e-10
-1.35377e-09
2.06391e-10
-1.57122e-09
2.17448e-10
-1.79906e-09
2.27835e-10
-2.03661e-09
2.37549e-10
-2.28319e-09
2.46587e-10
-2.53814e-09
2.5495e-10
-2.80078e-09
2.62639e-10
-3.07045e-09
2.6966e-10
-3.34647e-09
2.76018e-10
-3.62819e-09
2.8172e-10
-3.91496e-09
2.86773e-10
-4.20614e-09
2.91185e-10
-4.50111e-09
2.94965e-10
-4.79923e-09
2.98123e-10
-5.0999e-09
3.0067e-10
-5.40252e-09
3.02615e-10
-5.70649e-09
3.0397e-10
-6.01123e-09
3.04746e-10
-6.31619e-09
3.04955e-10
-6.6208e-09
3.04609e-10
-6.92452e-09
3.0372e-10
-7.22682e-09
3.023e-10
-7.52718e-09
3.00362e-10
-7.8251e-09
2.97917e-10
-8.12008e-09
2.9498e-10
-8.41164e-09
2.91562e-10
-8.69932e-09
2.87677e-10
-8.98266e-09
2.83338e-10
-9.26121e-09
2.78556e-10
-9.53456e-09
2.73346e-10
-9.80228e-09
2.6772e-10
-1.0064e-08
2.61691e-10
-1.03192e-08
2.55273e-10
-1.05677e-08
2.48478e-10
-1.0809e-08
2.41321e-10
-1.10429e-08
2.33814e-10
-1.12688e-08
2.2597e-10
-1.14866e-08
2.17803e-10
-1.1696e-08
2.09325e-10
-1.18965e-08
2.00551e-10
-1.2088e-08
1.91493e-10
-1.22702e-08
1.82166e-10
-1.24428e-08
1.72582e-10
-1.26055e-08
1.62755e-10
-1.27582e-08
1.527e-10
-1.29006e-08
1.4243e-10
-1.30326e-08
1.31958e-10
-1.31539e-08
1.21298e-10
-1.32644e-08
1.10465e-10
-1.33638e-08
9.94725e-11
-1.34522e-08
8.83348e-11
-1.35292e-08
7.70661e-11
-1.35949e-08
6.56811e-11
-1.36491e-08
5.41942e-11
-1.36917e-08
4.26203e-11
-1.37227e-08
3.09741e-11
-1.3742e-08
1.92706e-11
-1.37495e-08
7.52488e-12
-1.37452e-08
-4.24779e-12
-1.37292e-08
-1.60321e-11
-1.37014e-08
-2.78124e-11
-1.36618e-08
-3.9573e-11
-1.36105e-08
-5.12981e-11
-1.35476e-08
-6.29717e-11
-1.3473e-08
-7.45778e-11
-1.33869e-08
-8.61002e-11
-1.32894e-08
-9.75226e-11
-1.31805e-08
-1.08828e-10
-1.30605e-08
-1.20001e-10
-1.29295e-08
-1.31024e-10
-1.27876e-08
-1.4188e-10
-1.26351e-08
-1.52553e-10
-1.2472e-08
-1.63026e-10
-1.22988e-08
-1.73281e-10
-1.21155e-08
-1.83302e-10
-1.19224e-08
-1.93071e-10
-1.17198e-08
-2.02572e-10
-1.1508e-08
-2.11787e-10
-1.12873e-08
-2.20699e-10
-1.1058e-08
-2.29291e-10
-1.08205e-08
-2.37546e-10
-1.05751e-08
-2.45448e-10
-1.03221e-08
-2.52979e-10
-1.00619e-08
-2.60123e-10
-9.79509e-09
-2.66864e-10
-9.5219e-09
-2.73184e-10
-9.24284e-09
-2.79067e-10
-8.95834e-09
-2.84499e-10
-8.66887e-09
-2.89462e-10
-8.37493e-09
-2.93942e-10
-8.07701e-09
-2.97924e-10
-7.77561e-09
-3.01392e-10
-7.47128e-09
-3.04333e-10
-7.16455e-09
-3.06732e-10
-6.85597e-09
-3.08577e-10
-6.54612e-09
-3.09853e-10
-6.23557e-09
-3.10548e-10
-5.92492e-09
-3.10651e-10
-5.61477e-09
-3.10149e-10
-5.30573e-09
-3.09033e-10
-4.99844e-09
-3.07291e-10
-4.69353e-09
-3.04915e-10
-4.39163e-09
-3.01896e-10
-4.0934e-09
-2.98225e-10
-3.79951e-09
-2.93897e-10
-3.5106e-09
-2.88906e-10
-3.22735e-09
-2.83246e-10
-2.95044e-09
-2.76913e-10
-2.68054e-09
-2.69904e-10
-2.41831e-09
-2.6222e-10
-2.16445e-09
-2.53861e-10
-1.91962e-09
-2.44828e-10
-1.6845e-09
-2.35126e-10
-1.45974e-09
-2.2476e-10
-1.246e-09
-2.13738e-10
-1.04393e-09
-2.02074e-10
-8.54146e-10
-1.89781e-10
-6.77268e-10
-1.76878e-10
-5.13878e-10
-1.6339e-10
-3.64533e-10
-1.49345e-10
-2.29754e-10
-1.34779e-10
-1.10017e-10
-1.19738e-10
-5.74257e-12
-1.04276e-10
8.27189e-11
-8.84616e-11
1.55101e-10
-7.23819e-11
2.11248e-10
-5.61457e-11
2.51139e-10
-3.98907e-11
2.74932e-10
-2.37935e-11
2.83014e-10
-8.08302e-12
2.76075e-10
6.93764e-12
2.55215e-10
2.08603e-11
2.22092e-10
3.31255e-11
1.7914e-10
4.2953e-11
1.29888e-10
4.92527e-11
7.93546e-11
5.0531e-11
3.46134e-11
4.47369e-11
5.32084e-12
2.92874e-11
5.32183e-12
3.01515e-11
-3.62449e-11
1.01299e-10
-1.01326e-10
1.95551e-10
-1.39181e-10
2.95911e-10
-1.50001e-10
3.87981e-10
-1.39325e-10
4.60525e-10
-1.1243e-10
5.05083e-10
-7.36509e-11
5.15466e-10
-2.63684e-11
4.87269e-10
2.68413e-11
4.17511e-10
8.40264e-11
3.04261e-10
1.43689e-10
1.46415e-10
2.04699e-10
-5.64429e-11
2.66184e-10
-3.04242e-10
3.27457e-10
-5.96512e-10
3.87988e-10
-9.32446e-10
4.47361e-10
-1.31099e-09
5.05242e-10
-1.73091e-09
5.61369e-10
-2.19078e-09
6.15537e-10
-2.68908e-09
6.67581e-10
-3.22415e-09
7.17374e-10
-3.7943e-09
7.64816e-10
-4.39774e-09
8.09831e-10
-5.03266e-09
8.52362e-10
-5.69719e-09
8.9237e-10
-6.38947e-09
9.29827e-10
-7.1076e-09
9.64717e-10
-7.84969e-09
9.97036e-10
-8.61384e-09
1.02678e-09
-9.39815e-09
1.05397e-09
-1.02007e-08
1.07861e-09
-1.10198e-08
1.10073e-09
-1.18533e-08
1.12035e-09
-1.26996e-08
1.13749e-09
-1.35569e-08
1.15219e-09
-1.44232e-08
1.16448e-09
-1.52969e-08
1.1744e-09
-1.61763e-08
1.18198e-09
-1.70596e-08
1.18728e-09
-1.79452e-08
1.19032e-09
-1.88314e-08
1.19116e-09
-1.97166e-08
1.18983e-09
-2.05993e-08
1.18639e-09
-2.14779e-08
1.18088e-09
-2.23508e-08
1.17334e-09
-2.32168e-08
1.16383e-09
-2.40742e-08
1.15239e-09
-2.49217e-08
1.13907e-09
-2.57579e-08
1.12393e-09
-2.65816e-08
1.10701e-09
-2.73914e-08
1.08835e-09
-2.81861e-08
1.06802e-09
-2.89644e-08
1.04607e-09
-2.97253e-08
1.02253e-09
-3.04675e-08
9.97472e-10
-3.11899e-08
9.70937e-10
-3.18916e-08
9.4298e-10
-3.25714e-08
9.13651e-10
-3.32285e-08
8.83002e-10
-3.38617e-08
8.51086e-10
-3.44704e-08
8.17954e-10
-3.50535e-08
7.83659e-10
-3.56102e-08
7.48253e-10
-3.61399e-08
7.11789e-10
-3.66416e-08
6.74322e-10
-3.71147e-08
6.35904e-10
-3.75586e-08
5.96588e-10
-3.79726e-08
5.5643e-10
-3.83562e-08
5.15483e-10
-3.87087e-08
4.73801e-10
-3.90296e-08
4.31441e-10
-3.93186e-08
3.88458e-10
-3.95752e-08
3.44907e-10
-3.9799e-08
3.00845e-10
-3.99896e-08
2.56329e-10
-4.01468e-08
2.11416e-10
-4.02704e-08
1.66165e-10
-4.036e-08
1.20632e-10
-4.04156e-08
7.48784e-11
-4.04371e-08
2.8962e-11
-4.04243e-08
-1.70568e-11
-4.03772e-08
-6.31176e-11
-4.02958e-08
-1.09159e-10
-4.01803e-08
-1.55121e-10
-4.00306e-08
-2.0094e-10
-3.98471e-08
-2.46553e-10
-3.96297e-08
-2.91899e-10
-3.93789e-08
-3.36913e-10
-3.90949e-08
-3.81531e-10
-3.87781e-08
-4.25689e-10
-3.84287e-08
-4.69322e-10
-3.80474e-08
-5.12365e-10
-3.76345e-08
-5.54752e-10
-3.71907e-08
-5.96417e-10
-3.67164e-08
-6.37294e-10
-3.62124e-08
-6.77318e-10
-3.56793e-08
-7.1642e-10
-3.51178e-08
-7.54536e-10
-3.45288e-08
-7.91597e-10
-3.3913e-08
-8.27538e-10
-3.32714e-08
-8.62293e-10
-3.26049e-08
-8.95794e-10
-3.19145e-08
-9.27977e-10
-3.12012e-08
-9.58774e-10
-3.0466e-08
-9.88122e-10
-2.97102e-08
-1.01595e-09
-2.89348e-08
-1.04221e-09
-2.81412e-08
-1.06682e-09
-2.73305e-08
-1.08973e-09
-2.65042e-08
-1.11087e-09
-2.56634e-08
-1.13019e-09
-2.48098e-08
-1.14762e-09
-2.39446e-08
-1.1631e-09
-2.30694e-08
-1.17659e-09
-2.21857e-08
-1.18802e-09
-2.12951e-08
-1.19734e-09
-2.03991e-08
-1.2045e-09
-1.94995e-08
-1.20946e-09
-1.85979e-08
-1.21215e-09
-1.7696e-08
-1.21254e-09
-1.67956e-08
-1.21058e-09
-1.58984e-08
-1.20624e-09
-1.50062e-08
-1.19948e-09
-1.41209e-08
-1.19025e-09
-1.32442e-08
-1.17854e-09
-1.23781e-08
-1.16431e-09
-1.15245e-08
-1.14754e-09
-1.06852e-08
-1.12821e-09
-9.86211e-09
-1.10631e-09
-9.0572e-09
-1.08181e-09
-8.27238e-09
-1.05473e-09
-7.50955e-09
-1.02505e-09
-6.77062e-09
-9.92789e-10
-6.05749e-09
-9.57957e-10
-5.37204e-09
-9.20576e-10
-4.71612e-09
-8.80678e-10
-4.09155e-09
-8.38306e-10
-3.50011e-09
-7.93513e-10
-2.94352e-09
-7.46369e-10
-2.42345e-09
-6.96958e-10
-1.94145e-09
-6.45386e-10
-1.49901e-09
-5.91782e-10
-1.09749e-09
-5.36304e-10
-7.38077e-10
-4.79145e-10
-4.2181e-10
-4.20541e-10
-1.49488e-10
-3.60783e-10
7.83573e-11
-3.00229e-10
2.61532e-10
-2.39322e-10
4.00259e-10
-1.78618e-10
4.95287e-10
-1.1882e-10
5.48024e-10
-6.08166e-11
5.60715e-10
-5.75236e-12
5.36681e-10
4.48936e-11
4.80613e-10
8.91904e-11
3.98952e-10
1.24609e-10
3.00332e-10
1.47869e-10
1.96024e-10
1.54841e-10
1.00181e-10
1.40586e-10
2.9277e-11
1.00197e-10
3.45944e-11
4.48814e-11
-8.11396e-11
1.39215e-10
-1.9566e-10
2.56502e-10
-2.56468e-10
3.75135e-10
-2.68628e-10
4.7683e-10
-2.41023e-10
5.46697e-10
-1.8232e-10
5.73046e-10
-1.00009e-10
5.46924e-10
-2.35341e-13
4.6167e-10
1.12095e-10
3.12553e-10
2.33142e-10
9.63847e-11
3.59865e-10
-1.88808e-10
4.89885e-10
-5.43965e-10
6.21333e-10
-9.69225e-10
7.52715e-10
-1.46409e-09
8.82846e-10
-2.02752e-09
1.01079e-09
-2.65806e-09
1.13578e-09
-3.35391e-09
1.25722e-09
-4.11298e-09
1.37461e-09
-4.93298e-09
1.48758e-09
-5.81142e-09
1.59582e-09
-6.74568e-09
1.69907e-09
-7.73301e-09
1.79716e-09
-8.77059e-09
1.88994e-09
-9.85551e-09
1.97729e-09
-1.09848e-08
2.05915e-09
-1.21556e-08
2.13547e-09
-1.33648e-08
2.20621e-09
-1.46093e-08
2.27137e-09
-1.58863e-08
2.33096e-09
-1.71927e-08
2.38501e-09
-1.85255e-08
2.43354e-09
-1.98818e-08
2.4766e-09
-2.12586e-08
2.51426e-09
-2.26529e-08
2.54656e-09
-2.4062e-08
2.57358e-09
-2.5483e-08
2.59539e-09
-2.69131e-08
2.61208e-09
-2.83496e-08
2.62373e-09
-2.97897e-08
2.63042e-09
-3.12308e-08
2.63226e-09
-3.26703e-08
2.62933e-09
-3.41056e-08
2.62173e-09
-3.55343e-08
2.60957e-09
-3.69539e-08
2.59294e-09
-3.83621e-08
2.57196e-09
-3.97564e-08
2.54671e-09
-4.11346e-08
2.51732e-09
-4.24946e-08
2.48389e-09
-4.38341e-08
2.44652e-09
-4.51511e-08
2.40533e-09
-4.64435e-08
2.36043e-09
-4.77094e-08
2.31193e-09
-4.89468e-08
2.25994e-09
-5.01539e-08
2.20457e-09
-5.13289e-08
2.14593e-09
-5.247e-08
2.08415e-09
-5.35757e-08
2.01933e-09
-5.46443e-08
1.95159e-09
-5.56742e-08
1.88104e-09
-5.66641e-08
1.80779e-09
-5.76124e-08
1.73198e-09
-5.85179e-08
1.6537e-09
-5.93791e-08
1.57308e-09
-6.01951e-08
1.49024e-09
-6.09645e-08
1.40529e-09
-6.16862e-08
1.31836e-09
-6.23594e-08
1.22956e-09
-6.29829e-08
1.13902e-09
-6.3556e-08
1.04685e-09
-6.40777e-08
9.53185e-10
-6.45474e-08
8.58138e-10
-6.49643e-08
7.61838e-10
-6.53279e-08
6.64409e-10
-6.56375e-08
5.65979e-10
-6.58928e-08
4.66673e-10
-6.60932e-08
3.66621e-10
-6.62386e-08
2.65952e-10
-6.63285e-08
1.64797e-10
-6.63628e-08
6.32868e-11
-6.63414e-08
-3.84451e-11
-6.62643e-08
-1.40265e-10
-6.61314e-08
-2.42037e-10
-6.59429e-08
-3.43625e-10
-6.56989e-08
-4.44892e-10
-6.53998e-08
-5.45698e-10
-6.50458e-08
-6.45906e-10
-6.46373e-08
-7.45373e-10
-6.41749e-08
-8.43959e-10
-6.36591e-08
-9.4152e-10
-6.30905e-08
-1.03791e-09
-6.24698e-08
-1.13299e-09
-6.1798e-08
-1.22662e-09
-6.10758e-08
-1.31864e-09
-6.03041e-08
-1.40891e-09
-5.94842e-08
-1.49729e-09
-5.8617e-08
-1.58363e-09
-5.77037e-08
-1.66778e-09
-5.67457e-08
-1.74959e-09
-5.57443e-08
-1.82893e-09
-5.4701e-08
-1.90563e-09
-5.36172e-08
-1.97956e-09
-5.24946e-08
-2.05057e-09
-5.13349e-08
-2.11852e-09
-5.01397e-08
-2.18326e-09
-4.8911e-08
-2.24466e-09
-4.76507e-08
-2.30256e-09
-4.63607e-08
-2.35684e-09
-4.5043e-08
-2.40735e-09
-4.36999e-08
-2.45397e-09
-4.23336e-08
-2.49655e-09
-4.09462e-08
-2.53497e-09
-3.95402e-08
-2.5691e-09
-3.8118e-08
-2.59883e-09
-3.6682e-08
-2.62402e-09
-3.52348e-08
-2.64457e-09
-3.37789e-08
-2.66035e-09
-3.23171e-08
-2.67127e-09
-3.0852e-08
-2.67723e-09
-2.93864e-08
-2.67812e-09
-2.79232e-08
-2.67385e-09
-2.64651e-08
-2.66434e-09
-2.5015e-08
-2.6495e-09
-2.3576e-08
-2.62928e-09
-2.2151e-08
-2.60359e-09
-2.07429e-08
-2.57239e-09
-1.93548e-08
-2.53563e-09
-1.79898e-08
-2.49326e-09
-1.66508e-08
-2.44526e-09
-1.5341e-08
-2.39162e-09
-1.40634e-08
-2.33233e-09
-1.28211e-08
-2.26739e-09
-1.1617e-08
-2.19684e-09
-1.04543e-08
-2.12071e-09
-9.33577e-09
-2.03906e-09
-8.26447e-09
-1.95198e-09
-7.2432e-09
-1.85957e-09
-6.27475e-09
-1.76197e-09
-5.36178e-09
-1.65933e-09
-4.50686e-09
-1.55188e-09
-3.71238e-09
-1.43986e-09
-2.98059e-09
-1.32358e-09
-2.3135e-09
-1.2034e-09
-1.71287e-09
-1.07978e-09
-1.18016e-09
-9.53256e-10
-7.16437e-10
-8.245e-10
-3.22342e-10
-6.94321e-10
2.05105e-12
-5.63713e-10
2.57337e-10
-4.33904e-10
4.44931e-10
-3.06415e-10
5.67256e-10
-1.83146e-10
6.27979e-10
-6.64793e-11
6.32288e-10
4.05819e-11
5.87234e-10
1.34246e-10
5.02107e-10
2.0974e-10
3.88834e-10
2.61147e-10
2.6232e-10
2.81352e-10
1.4061e-10
2.62291e-10
4.47262e-11
1.96085e-10
7.93145e-11
4.97267e-11
-1.30884e-10
1.50362e-10
-2.96304e-10
2.69293e-10
-3.7539e-10
3.8131e-10
-3.80649e-10
4.65628e-10
-3.25331e-10
5.05159e-10
-2.21853e-10
4.8619e-10
-8.10414e-11
3.97955e-10
8.80104e-11
2.32201e-10
2.77853e-10
-1.71308e-11
4.82467e-10
-3.54255e-10
6.96996e-10
-7.81899e-10
9.17532e-10
-1.30152e-09
1.14094e-09
-1.91351e-09
1.3647e-09
-2.61744e-09
1.58677e-09
-3.41215e-09
1.80549e-09
-4.2959e-09
2.01953e-09
-5.2665e-09
2.22781e-09
-6.32133e-09
2.42944e-09
-7.45747e-09
2.62372e-09
-8.67172e-09
2.81008e-09
-9.9607e-09
2.98805e-09
-1.13208e-08
3.15729e-09
-1.27484e-08
3.31751e-09
-1.42396e-08
3.46849e-09
-1.57905e-08
3.61008e-09
-1.73972e-08
3.74217e-09
-1.90557e-08
3.8647e-09
-2.0762e-08
3.97763e-09
-2.2512e-08
4.08096e-09
-2.43017e-08
4.17471e-09
-2.61271e-08
4.25894e-09
-2.79842e-08
4.33371e-09
-2.9869e-08
4.3991e-09
-3.17777e-08
4.45521e-09
-3.37062e-08
4.50215e-09
-3.56509e-08
4.54005e-09
-3.76079e-08
4.56903e-09
-3.95734e-08
4.58924e-09
-4.15438e-08
4.60084e-09
-4.35155e-08
4.60396e-09
-4.54849e-08
4.59878e-09
-4.74487e-08
4.58545e-09
-4.94032e-08
4.56416e-09
-5.13454e-08
4.53508e-09
-5.32718e-08
4.49837e-09
-5.51793e-08
4.45424e-09
-5.70648e-08
4.40285e-09
-5.89254e-08
4.34439e-09
-6.07579e-08
4.27906e-09
-6.25596e-08
4.20704e-09
-6.43277e-08
4.12853e-09
-6.60595e-08
4.04371e-09
-6.77523e-08
3.95279e-09
-6.94037e-08
3.85595e-09
-7.10112e-08
3.7534e-09
-7.25724e-08
3.64533e-09
-7.4085e-08
3.53194e-09
-7.55468e-08
3.41344e-09
-7.69558e-08
3.29002e-09
-7.83099e-08
3.16189e-09
-7.96072e-08
3.02924e-09
-8.08458e-08
2.89229e-09
-8.20239e-08
2.75123e-09
-8.314e-08
2.60629e-09
-8.41923e-08
2.45765e-09
-8.51795e-08
2.30554e-09
-8.61001e-08
2.15017e-09
-8.69528e-08
1.99173e-09
-8.77364e-08
1.83046e-09
-8.84498e-08
1.66656e-09
-8.90919e-08
1.50025e-09
-8.96618e-08
1.33175e-09
-9.01587e-08
1.16128e-09
-9.05818e-08
9.89055e-10
-9.09304e-08
8.15306e-10
-9.1204e-08
6.40255e-10
-9.14022e-08
4.6413e-10
-9.15246e-08
2.87161e-10
-9.15709e-08
1.09577e-10
-9.15409e-08
-6.83867e-11
-9.14347e-08
-2.46496e-10
-9.12522e-08
-4.24514e-10
-9.09936e-08
-6.02201e-10
-9.06592e-08
-7.79317e-10
-9.02493e-08
-9.55619e-10
-8.97643e-08
-1.13086e-09
-8.92049e-08
-1.3048e-09
-8.85717e-08
-1.47718e-09
-8.78654e-08
-1.64777e-09
-8.70871e-08
-1.8163e-09
-8.62375e-08
-1.98252e-09
-8.5318e-08
-2.14618e-09
-8.43296e-08
-2.30704e-09
-8.32737e-08
-2.46482e-09
-8.21517e-08
-2.61928e-09
-8.09652e-08
-2.77016e-09
-7.97157e-08
-2.9172e-09
-7.84052e-08
-3.06016e-09
-7.70353e-08
-3.19876e-09
-7.56082e-08
-3.33277e-09
-7.41258e-08
-3.46191e-09
-7.25905e-08
-3.58595e-09
-7.10044e-08
-3.70463e-09
-6.93699e-08
-3.8177e-09
-6.76897e-08
-3.92491e-09
-6.59662e-08
-4.02602e-09
-6.42023e-08
-4.1208e-09
-6.24006e-08
-4.20899e-09
-6.05642e-08
-4.29037e-09
-5.8696e-08
-4.36472e-09
-5.67992e-08
-4.4318e-09
-5.48769e-08
-4.49139e-09
-5.29325e-08
-4.54329e-09
-5.09692e-08
-4.58729e-09
-4.89906e-08
-4.62319e-09
-4.70001e-08
-4.65079e-09
-4.50015e-08
-4.66991e-09
-4.29983e-08
-4.68039e-09
-4.09944e-08
-4.68205e-09
-3.89935e-08
-4.67473e-09
-3.69996e-08
-4.6583e-09
-3.50165e-08
-4.63261e-09
-3.30482e-08
-4.59756e-09
-3.10987e-08
-4.55303e-09
-2.91722e-08
-4.49893e-09
-2.72726e-08
-4.43519e-09
-2.54041e-08
-4.36174e-09
-2.35709e-08
-4.27856e-09
-2.17769e-08
-4.18561e-09
-2.00263e-08
-4.08291e-09
-1.83232e-08
-3.97047e-09
-1.66717e-08
-3.84836e-09
-1.50757e-08
-3.71666e-09
-1.35393e-08
-3.5755e-09
-1.20663e-08
-3.42503e-09
-1.06604e-08
-3.26546e-09
-9.32529e-09
-3.09704e-09
-8.06453e-09
-2.9201e-09
-6.88141e-09
-2.735e-09
-5.77904e-09
-2.54223e-09
-4.76028e-09
-2.34233e-09
-3.82769e-09
-2.13599e-09
-2.98344e-09
-1.92402e-09
-2.22931e-09
-1.70739e-09
-1.56654e-09
-1.48727e-09
-9.95761e-10
-1.2651e-09
-5.16865e-10
-1.04261e-09
-1.28871e-10
-8.21897e-10
1.70257e-10
-6.05542e-10
3.83822e-10
-3.96708e-10
5.16633e-10
-1.99288e-10
5.75297e-10
-1.80819e-11
5.68535e-10
1.41003e-10
5.07534e-10
2.70738e-10
4.06287e-10
3.62393e-10
2.8194e-10
4.05696e-10
1.55135e-10
3.89096e-10
5.05802e-11
3.00645e-10
1.29891e-10
4.75214e-11
-1.784e-10
1.40297e-10
-3.89074e-10
2.42857e-10
-4.77942e-10
3.27783e-10
-4.65599e-10
3.72738e-10
-3.70295e-10
3.59348e-10
-2.08465e-10
2.72688e-10
5.61313e-12
1.00869e-10
2.59839e-10
-1.65388e-10
5.44122e-10
-5.33069e-10
8.50143e-10
-1.00715e-09
1.17107e-09
-1.59094e-09
1.50132e-09
-2.28631e-09
1.83631e-09
-3.09392e-09
2.17231e-09
-4.0134e-09
2.50625e-09
-5.04354e-09
2.83563e-09
-6.18242e-09
3.15841e-09
-7.4275e-09
3.4729e-09
-8.77577e-09
3.77771e-09
-1.02238e-08
4.07174e-09
-1.17678e-08
4.35407e-09
-1.34037e-08
4.62396e-09
-1.51272e-08
4.88082e-09
-1.69339e-08
5.12418e-09
-1.88191e-08
5.35369e-09
-2.07781e-08
5.56906e-09
-2.2806e-08
5.77011e-09
-2.4898e-08
5.95671e-09
-2.70492e-08
6.12878e-09
-2.92545e-08
6.28629e-09
-3.15091e-08
6.42926e-09
-3.38079e-08
6.55774e-09
-3.6146e-08
6.67183e-09
-3.85185e-08
6.77162e-09
-4.09206e-08
6.85725e-09
-4.33473e-08
6.92889e-09
-4.5794e-08
6.98671e-09
-4.82558e-08
7.03089e-09
-5.07282e-08
7.06166e-09
-5.32066e-08
7.07922e-09
-5.56865e-08
7.08381e-09
-5.81634e-08
7.07566e-09
-6.06329e-08
7.05503e-09
-6.3091e-08
7.02217e-09
-6.55332e-08
6.97735e-09
-6.79557e-08
6.92083e-09
-7.03543e-08
6.85289e-09
-7.27253e-08
6.7738e-09
-7.50647e-08
6.68385e-09
-7.7369e-08
6.58333e-09
-7.96345e-08
6.47252e-09
-8.18577e-08
6.35172e-09
-8.40352e-08
6.22123e-09
-8.61637e-08
6.08133e-09
-8.82401e-08
5.93233e-09
-9.02613e-08
5.77454e-09
-9.22242e-08
5.60825e-09
-9.4126e-08
5.43378e-09
-9.5964e-08
5.25142e-09
-9.77355e-08
5.0615e-09
-9.94379e-08
4.86431e-09
-1.01069e-07
4.66018e-09
-1.02626e-07
4.44942e-09
-1.04107e-07
4.23234e-09
-1.0551e-07
4.00926e-09
-1.06833e-07
3.78051e-09
-1.08074e-07
3.54641e-09
-1.09231e-07
3.30728e-09
-1.10303e-07
3.06345e-09
-1.11287e-07
2.81524e-09
-1.12184e-07
2.563e-09
-1.12991e-07
2.30705e-09
-1.13707e-07
2.04773e-09
-1.14331e-07
1.78538e-09
-1.14862e-07
1.52034e-09
-1.153e-07
1.25296e-09
-1.15643e-07
9.83585e-10
-1.15891e-07
7.12564e-10
-1.16044e-07
4.40252e-10
-1.16102e-07
1.67005e-10
-1.16063e-07
-1.06817e-10
-1.15929e-07
-3.80852e-10
-1.15699e-07
-6.54733e-10
-1.15373e-07
-9.28094e-10
-1.14952e-07
-1.20056e-09
-1.14436e-07
-1.47177e-09
-1.13825e-07
-1.74132e-09
-1.13121e-07
-2.00886e-09
-1.12324e-07
-2.274e-09
-1.11436e-07
-2.53634e-09
-1.10456e-07
-2.79552e-09
-1.09388e-07
-3.05113e-09
-1.08231e-07
-3.30279e-09
-1.06988e-07
-3.55012e-09
-1.0566e-07
-3.79271e-09
-1.04249e-07
-4.03017e-09
-1.02757e-07
-4.26212e-09
-1.01187e-07
-4.48815e-09
-9.95388e-08
-4.70788e-09
-9.78166e-08
-4.92092e-09
-9.60225e-08
-5.12686e-09
-9.41591e-08
-5.32534e-09
-9.22291e-08
-5.51595e-09
-9.02354e-08
-5.69831e-09
-8.81811e-08
-5.87205e-09
-8.60692e-08
-6.03678e-09
-8.39031e-08
-6.19213e-09
-8.16862e-08
-6.33774e-09
-7.94219e-08
-6.47324e-09
-7.7114e-08
-6.59828e-09
-7.47662e-08
-6.71251e-09
-7.23824e-08
-6.81558e-09
-6.99666e-08
-6.90717e-09
-6.7523e-08
-6.98695e-09
-6.50556e-08
-7.05461e-09
-6.2569e-08
-7.10985e-09
-6.00674e-08
-7.15238e-09
-5.75554e-08
-7.18191e-09
-5.50376e-08
-7.1982e-09
-5.25186e-08
-7.20098e-09
-5.00033e-08
-7.19004e-09
-4.74965e-08
-7.16515e-09
-4.5003e-08
-7.12611e-09
-4.25278e-08
-7.07276e-09
-4.00759e-08
-7.00494e-09
-3.76523e-08
-6.92252e-09
-3.52621e-08
-6.82538e-09
-3.29104e-08
-6.71347e-09
-3.06022e-08
-6.58672e-09
-2.83427e-08
-6.44513e-09
-2.61369e-08
-6.28871e-09
-2.39898e-08
-6.11752e-09
-2.19065e-08
-5.93167e-09
-1.98918e-08
-5.73132e-09
-1.79507e-08
-5.51666e-09
-1.60877e-08
-5.28797e-09
-1.43076e-08
-5.0456e-09
-1.26147e-08
-4.78995e-09
-1.10132e-08
-4.52155e-09
-9.50723e-09
-4.24101e-09
-8.10038e-09
-3.94907e-09
-6.79608e-09
-3.64664e-09
-5.5973e-09
-3.33477e-09
-4.50658e-09
-3.01474e-09
-3.5259e-09
-2.68806e-09
-2.65662e-09
-2.35656e-09
-1.89932e-09
-2.0224e-09
-1.25374e-09
-1.6882e-09
-7.18523e-10
-1.35711e-09
-2.91135e-10
-1.03293e-09
3.24134e-11
-7.20257e-10
2.57783e-10
-4.24657e-10
3.92576e-10
-1.52875e-10
4.46628e-10
8.69489e-11
4.32321e-10
2.85042e-10
3.64917e-10
4.29795e-10
2.62951e-10
5.0766e-10
1.4876e-10
5.03288e-10
4.94559e-11
3.99948e-10
1.79348e-10
4.0426e-11
-2.1882e-10
1.14282e-10
-4.62946e-10
1.85846e-10
-5.49497e-10
2.26923e-10
-5.06679e-10
2.14483e-10
-3.57857e-10
1.29564e-10
-1.23541e-10
-4.33619e-11
1.78532e-10
-3.16789e-10
5.33262e-10
-7.00576e-10
9.27916e-10
-1.20227e-09
1.35184e-09
-1.82735e-09
1.79615e-09
-2.57952e-09
2.25349e-09
-3.46094e-09
2.71773e-09
-4.47246e-09
3.18382e-09
-5.61378e-09
3.64756e-09
-6.88363e-09
4.10548e-09
-8.27993e-09
4.55471e-09
-9.79989e-09
4.99286e-09
-1.14402e-08
5.41798e-09
-1.31969e-08
5.82844e-09
-1.50657e-08
6.22291e-09
-1.70421e-08
6.60032e-09
-1.9121e-08
6.95979e-09
-2.12975e-08
7.30061e-09
-2.3566e-08
7.62224e-09
-2.59212e-08
7.92424e-09
-2.83574e-08
8.20631e-09
-3.08689e-08
8.46823e-09
-3.345e-08
8.70986e-09
-3.60949e-08
8.93113e-09
-3.87976e-08
9.13203e-09
-4.15525e-08
9.31263e-09
-4.43537e-08
9.473e-09
-4.71954e-08
9.61329e-09
-5.00718e-08
9.73367e-09
-5.29773e-08
9.83435e-09
-5.59061e-08
9.91555e-09
-5.88528e-08
9.97754e-09
-6.18117e-08
1.00206e-08
-6.47775e-08
1.0045e-08
-6.77448e-08
1.00511e-08
-7.07083e-08
1.00392e-08
-7.36629e-08
1.00096e-08
-7.66036e-08
9.96279e-09
-7.95252e-08
9.89901e-09
-8.24231e-08
9.81867e-09
-8.52923e-08
9.72216e-09
-8.81284e-08
9.60985e-09
-9.09267e-08
9.48216e-09
-9.36829e-08
9.33949e-09
-9.63926e-08
9.18223e-09
-9.90516e-08
9.0108e-09
-1.01656e-07
8.82562e-09
-1.04202e-07
8.6271e-09
-1.06685e-07
8.41568e-09
-1.09102e-07
8.19178e-09
-1.1145e-07
7.95582e-09
-1.13724e-07
7.70824e-09
-1.15922e-07
7.44948e-09
-1.18041e-07
7.17997e-09
-1.20077e-07
6.90016e-09
-1.22027e-07
6.61049e-09
-1.23889e-07
6.3114e-09
-1.2566e-07
6.00336e-09
-1.27338e-07
5.6868e-09
-1.28919e-07
5.36219e-09
-1.30403e-07
5.02998e-09
-1.31786e-07
4.69064e-09
-1.33067e-07
4.34463e-09
-1.34245e-07
3.99241e-09
-1.35316e-07
3.63447e-09
-1.3628e-07
3.27127e-09
-1.37136e-07
2.9033e-09
-1.37882e-07
2.53104e-09
-1.38516e-07
2.15497e-09
-1.39039e-07
1.77558e-09
-1.39449e-07
1.39337e-09
-1.39745e-07
1.00884e-09
-1.39927e-07
6.22495e-10
-1.39995e-07
2.34832e-10
-1.39948e-07
-1.53633e-10
-1.39787e-07
-5.42385e-10
-1.3951e-07
-9.30904e-10
-1.3912e-07
-1.31867e-09
-1.38615e-07
-1.70515e-09
-1.37997e-07
-2.08982e-09
-1.37266e-07
-2.47214e-09
-1.36424e-07
-2.85158e-09
-1.3547e-07
-3.22758e-09
-1.34407e-07
-3.59962e-09
-1.33235e-07
-3.96714e-09
-1.31957e-07
-4.32959e-09
-1.30573e-07
-4.68642e-09
-1.29086e-07
-5.03707e-09
-1.27498e-07
-5.381e-09
-1.2581e-07
-5.71764e-09
-1.24026e-07
-6.04645e-09
-1.22147e-07
-6.36685e-09
-1.20177e-07
-6.67831e-09
-1.18118e-07
-6.98026e-09
-1.15972e-07
-7.27215e-09
-1.13744e-07
-7.55344e-09
-1.11437e-07
-7.82357e-09
-1.09053e-07
-8.08201e-09
-1.06597e-07
-8.32822e-09
-1.04072e-07
-8.56166e-09
-1.01482e-07
-8.78181e-09
-9.88317e-08
-8.98816e-09
-9.61247e-08
-9.18019e-09
-9.33656e-08
-9.3574e-09
-9.05588e-08
-9.51931e-09
-8.7709e-08
-9.66543e-09
-8.48208e-08
-9.7953e-09
-8.18993e-08
-9.90847e-09
-7.89494e-08
-1.00045e-08
-7.59763e-08
-1.0083e-08
-7.29852e-08
-1.01435e-08
-6.99815e-08
-1.01856e-08
-6.69706e-08
-1.02091e-08
-6.39581e-08
-1.02135e-08
-6.09496e-08
-1.01985e-08
-5.79509e-08
-1.01638e-08
-5.49678e-08
-1.01093e-08
-5.20061e-08
-1.00345e-08
-4.90716e-08
-9.93936e-09
-4.61705e-08
-9.82368e-09
-4.33085e-08
-9.68732e-09
-4.04918e-08
-9.53018e-09
-3.77263e-08
-9.35222e-09
-3.5018e-08
-9.15343e-09
-3.23729e-08
-8.93386e-09
-2.97968e-08
-8.69363e-09
-2.72955e-08
-8.4329e-09
-2.48749e-08
-8.15191e-09
-2.25406e-08
-7.85099e-09
-2.0298e-08
-7.53055e-09
-1.81525e-08
-7.19111e-09
-1.61092e-08
-6.83328e-09
-1.41729e-08
-6.45783e-09
-1.23482e-08
-6.06568e-09
-1.06394e-08
-5.65791e-09
-9.05025e-09
-5.23581e-09
-7.58411e-09
-4.80091e-09
-6.2438e-09
-4.35505e-09
-5.0315e-09
-3.90036e-09
-3.94863e-09
-3.43942e-09
-2.99576e-09
-2.97526e-09
-2.17246e-09
-2.5115e-09
-1.47715e-09
-2.05243e-09
-9.0688e-10
-1.6032e-09
-4.572e-10
-1.16994e-09
-1.21876e-10
-7.59981e-10
1.07327e-10
-3.82078e-10
2.40918e-10
-4.66407e-11
2.9196e-10
2.34002e-10
2.76401e-10
4.45353e-10
2.13508e-10
5.7055e-10
1.2647e-10
5.90326e-10
4.34246e-11
4.82988e-10
2.22775e-10
2.99732e-11
-2.48784e-10
7.66198e-11
-5.09612e-10
1.05673e-10
-5.7856e-10
8.93942e-11
-4.90399e-10
4.86437e-12
-2.73323e-10
-1.66882e-10
4.82216e-11
-4.41476e-10
4.5313e-10
-8.31601e-10
9.23383e-10
-1.34734e-09
1.44366e-09
-1.99649e-09
2.00098e-09
-2.78478e-09
2.58444e-09
-3.71612e-09
3.18483e-09
-4.79285e-09
3.79445e-09
-6.01588e-09
4.40685e-09
-7.38495e-09
5.01662e-09
-8.8987e-09
5.61924e-09
-1.05549e-08
6.21093e-09
-1.23506e-08
6.78854e-09
-1.4282e-08
7.34943e-09
-1.6345e-08
7.89142e-09
-1.85348e-08
8.41271e-09
-2.08463e-08
8.91181e-09
-2.3274e-08
9.3875e-09
-2.58122e-08
9.83879e-09
-2.84549e-08
1.02649e-08
-3.11959e-08
1.06653e-08
-3.40289e-08
1.10393e-08
-3.69475e-08
1.13868e-08
-3.99452e-08
1.17075e-08
-4.30154e-08
1.20013e-08
-4.61515e-08
1.22681e-08
-4.93468e-08
1.2508e-08
-5.25948e-08
1.2721e-08
-5.58888e-08
1.29073e-08
-5.92223e-08
1.30672e-08
-6.25888e-08
1.32008e-08
-6.59817e-08
1.33085e-08
-6.93947e-08
1.33906e-08
-7.28215e-08
1.34474e-08
-7.62558e-08
1.34793e-08
-7.96915e-08
1.34868e-08
-8.31225e-08
1.34702e-08
-8.6543e-08
1.34301e-08
-8.99469e-08
1.33668e-08
-9.33288e-08
1.32809e-08
-9.66829e-08
1.31728e-08
-1.00004e-07
1.3043e-08
-1.03286e-07
1.28921e-08
-1.06525e-07
1.27206e-08
-1.09714e-07
1.25291e-08
-1.1285e-07
1.2318e-08
-1.15927e-07
1.20879e-08
-1.18941e-07
1.18393e-08
-1.21886e-07
1.15729e-08
-1.2476e-07
1.12892e-08
-1.27557e-07
1.09887e-08
-1.30273e-07
1.06721e-08
-1.32905e-07
1.03398e-08
-1.35448e-07
9.9926e-09
-1.37899e-07
9.63095e-09
-1.40254e-07
9.25548e-09
-1.4251e-07
8.86678e-09
-1.44664e-07
8.46545e-09
-1.46713e-07
8.05209e-09
-1.48654e-07
7.62732e-09
-1.50483e-07
7.19174e-09
-1.52199e-07
6.74597e-09
-1.53799e-07
6.29063e-09
-1.55281e-07
5.82635e-09
-1.56642e-07
5.35375e-09
-1.57881e-07
4.87347e-09
-1.58996e-07
4.38615e-09
-1.59985e-07
3.89243e-09
-1.60847e-07
3.39296e-09
-1.61581e-07
2.8884e-09
-1.62184e-07
2.3794e-09
-1.62658e-07
1.86663e-09
-1.63e-07
1.35075e-09
-1.6321e-07
8.32453e-10
-1.63287e-07
3.12409e-10
-1.63232e-07
-2.08694e-10
-1.63044e-07
-7.30163e-10
-1.62724e-07
-1.2513e-09
-1.62271e-07
-1.77141e-09
-1.61687e-07
-2.28977e-09
-1.60971e-07
-2.80568e-09
-1.60124e-07
-3.31843e-09
-1.59149e-07
-3.82728e-09
-1.58045e-07
-4.33151e-09
-1.56814e-07
-4.83039e-09
-1.55458e-07
-5.3232e-09
-1.53978e-07
-5.80918e-09
-1.52377e-07
-6.28761e-09
-1.50656e-07
-6.75774e-09
-1.48819e-07
-7.21883e-09
-1.46866e-07
-7.67013e-09
-1.44802e-07
-8.11091e-09
-1.42628e-07
-8.54041e-09
-1.40349e-07
-8.9579e-09
-1.37966e-07
-9.36264e-09
-1.35484e-07
-9.75388e-09
-1.32907e-07
-1.01309e-08
-1.30238e-07
-1.0493e-08
-1.2748e-07
-1.08393e-08
-1.24639e-07
-1.11693e-08
-1.21719e-07
-1.14822e-08
-1.18723e-07
-1.17773e-08
-1.15657e-07
-1.20539e-08
-1.12526e-07
-1.23113e-08
-1.09335e-07
-1.25489e-08
-1.06088e-07
-1.2766e-08
-1.02792e-07
-1.2962e-08
-9.94507e-08
-1.31362e-08
-9.6071e-08
-1.32881e-08
-9.26584e-08
-1.34171e-08
-8.92187e-08
-1.35226e-08
-8.57581e-08
-1.36042e-08
-8.22825e-08
-1.36612e-08
-7.87984e-08
-1.36932e-08
-7.5312e-08
-1.36998e-08
-7.18299e-08
-1.36806e-08
-6.83586e-08
-1.36351e-08
-6.49048e-08
-1.35631e-08
-6.14751e-08
-1.34642e-08
-5.80763e-08
-1.33381e-08
-5.47152e-08
-1.31848e-08
-5.13986e-08
-1.30039e-08
-4.81334e-08
-1.27954e-08
-4.49263e-08
-1.25593e-08
-4.17843e-08
-1.22955e-08
-3.87139e-08
-1.20042e-08
-3.5722e-08
-1.16855e-08
-3.28152e-08
-1.13397e-08
-2.99999e-08
-1.09672e-08
-2.72825e-08
-1.05684e-08
-2.46691e-08
-1.01439e-08
-2.21658e-08
-9.69439e-09
-1.97783e-08
-9.22079e-09
-1.7512e-08
-8.72414e-09
-1.5372e-08
-8.2057e-09
-1.3363e-08
-7.66695e-09
-1.14891e-08
-7.10966e-09
-9.75413e-09
-6.5359e-09
-8.16107e-09
-5.94811e-09
-6.71227e-09
-5.34916e-09
-5.40925e-09
-4.74244e-09
-4.25258e-09
-4.13194e-09
-3.24174e-09
-3.52233e-09
-2.37499e-09
-2.91918e-09
-1.64916e-09
-2.32902e-09
-1.05952e-09
-1.75959e-09
-5.99501e-10
-1.22e-09
-2.6055e-10
-7.21029e-10
-3.18453e-11
-2.75344e-10
9.99472e-11
1.02208e-10
1.50998e-10
3.943e-10
1.40731e-10
5.80816e-10
9.2402e-11
6.38655e-10
3.39855e-11
5.41398e-10
2.56762e-10
1.72526e-11
-2.66039e-10
3.0625e-11
-5.22983e-10
8.34137e-12
-5.56288e-10
-7.59706e-11
-4.06091e-10
-2.44427e-10
-1.04871e-10
-5.15484e-10
3.19285e-10
-9.04453e-10
8.42107e-10
-1.42385e-09
1.44278e-09
-2.08368e-09
2.10349e-09
-2.89173e-09
2.80903e-09
-3.85374e-09
3.54645e-09
-4.97368e-09
4.30476e-09
-6.25389e-09
5.07465e-09
-7.69529e-09
5.84824e-09
-9.29754e-09
6.61887e-09
-1.10592e-08
7.3809e-09
-1.29779e-08
8.12961e-09
-1.50503e-08
8.86099e-09
-1.72726e-08
9.5717e-09
-1.96401e-08
1.02589e-08
-2.21477e-08
1.09203e-08
-2.47899e-08
1.1554e-08
-2.75606e-08
1.21582e-08
-3.04537e-08
1.27318e-08
-3.34625e-08
1.32737e-08
-3.65803e-08
1.3783e-08
-3.98e-08
1.42591e-08
-4.31148e-08
1.47016e-08
-4.65172e-08
1.511e-08
-5.00001e-08
1.54842e-08
-5.3556e-08
1.58241e-08
-5.71778e-08
1.61297e-08
-6.08579e-08
1.64011e-08
-6.4589e-08
1.66385e-08
-6.83639e-08
1.6842e-08
-7.21752e-08
1.70121e-08
-7.60156e-08
1.7149e-08
-7.98782e-08
1.72531e-08
-8.37557e-08
1.73249e-08
-8.76411e-08
1.73648e-08
-9.15277e-08
1.73734e-08
-9.54086e-08
1.73511e-08
-9.92771e-08
1.72986e-08
-1.03127e-07
1.72164e-08
-1.06951e-07
1.71051e-08
-1.10744e-07
1.69654e-08
-1.14498e-07
1.67979e-08
-1.1821e-07
1.66032e-08
-1.21871e-07
1.6382e-08
-1.25477e-07