/*--------------------------------*- C++ -*----------------------------------*\
  =========                 |
  \\      /  F ield         | OpenFOAM: The Open Source CFD Toolbox
   \\    /   O peration     | Website:  https://openfoam.org
    \\  /    A nd           | Version:  7
     \\/     M anipulation  |
\*---------------------------------------------------------------------------*/
FoamFile
{
    version     2.0;
    format      ascii;
    class       volVectorField;
    location    "0.4875";
    object      U;
}
// * * * * * * * * * * * * * * * * * * * * * * * * * * * * * * * * * * * * * //

dimensions      [0 1 -1 0 0 0 0];

internalField   nonuniform List<vector> 
25600
(
(1.90038e-07 -1.93768e-07 0)
(2.85771e-06 -1.78778e-06 0)
(9.08877e-06 -2.83098e-06 0)
(1.69371e-05 -3.20658e-06 0)
(2.48966e-05 -3.1239e-06 0)
(3.20158e-05 -2.74645e-06 0)
(3.76406e-05 -2.18239e-06 0)
(4.132e-05 -1.50219e-06 0)
(4.27551e-05 -7.51888e-07 0)
(4.17539e-05 3.73275e-08 0)
(3.81983e-05 8.44566e-07 0)
(3.20237e-05 1.65646e-06 0)
(2.32095e-05 2.46272e-06 0)
(1.17656e-05 3.25601e-06 0)
(-2.2757e-06 4.03134e-06 0)
(-1.88626e-05 4.78452e-06 0)
(-3.79295e-05 5.51232e-06 0)
(-5.94007e-05 6.21278e-06 0)
(-8.31913e-05 6.88436e-06 0)
(-0.00010921 7.52574e-06 0)
(-0.00013736 8.13606e-06 0)
(-0.000167541 8.71471e-06 0)
(-0.000199651 9.26121e-06 0)
(-0.000233583 9.77542e-06 0)
(-0.000269232 1.02574e-05 0)
(-0.000306489 1.0707e-05 0)
(-0.000345245 1.11246e-05 0)
(-0.000385395 1.15101e-05 0)
(-0.000426828 1.1864e-05 0)
(-0.000469438 1.21866e-05 0)
(-0.000513118 1.24782e-05 0)
(-0.000557762 1.27394e-05 0)
(-0.000603267 1.29704e-05 0)
(-0.000649528 1.31718e-05 0)
(-0.000696445 1.33441e-05 0)
(-0.000743916 1.34879e-05 0)
(-0.000791843 1.36035e-05 0)
(-0.000840129 1.36917e-05 0)
(-0.000888679 1.37528e-05 0)
(-0.000937398 1.37876e-05 0)
(-0.000986196 1.37966e-05 0)
(-0.00103498 1.37803e-05 0)
(-0.00108367 1.37394e-05 0)
(-0.00113217 1.36743e-05 0)
(-0.00118041 1.35858e-05 0)
(-0.00122829 1.34744e-05 0)
(-0.00127574 1.33407e-05 0)
(-0.00132268 1.31854e-05 0)
(-0.00136904 1.30089e-05 0)
(-0.00141474 1.28119e-05 0)
(-0.00145971 1.2595e-05 0)
(-0.00150387 1.23588e-05 0)
(-0.00154718 1.21039e-05 0)
(-0.00158954 1.18308e-05 0)
(-0.00163092 1.15403e-05 0)
(-0.00167123 1.12328e-05 0)
(-0.00171043 1.0909e-05 0)
(-0.00174845 1.05695e-05 0)
(-0.00178525 1.02148e-05 0)
(-0.00182076 9.84568e-06 0)
(-0.00185495 9.46258e-06 0)
(-0.00188775 9.06612e-06 0)
(-0.00191912 8.65693e-06 0)
(-0.00194903 8.2356e-06 0)
(-0.00197741 7.80275e-06 0)
(-0.00200425 7.35899e-06 0)
(-0.0020295 6.90494e-06 0)
(-0.00205311 6.44122e-06 0)
(-0.00207507 5.96842e-06 0)
(-0.00209534 5.48717e-06 0)
(-0.00211389 4.99809e-06 0)
(-0.00213069 4.5018e-06 0)
(-0.00214572 3.99896e-06 0)
(-0.00215896 3.49019e-06 0)
(-0.00217038 2.97614e-06 0)
(-0.00217997 2.45747e-06 0)
(-0.00218772 1.93483e-06 0)
(-0.00219361 1.40889e-06 0)
(-0.00219763 8.80303e-07 0)
(-0.00219978 3.49756e-07 0)
(-0.00220004 -1.8207e-07 0)
(-0.00219842 -7.14488e-07 0)
(-0.00219491 -1.2468e-06 0)
(-0.00218952 -1.7783e-06 0)
(-0.00218225 -2.30828e-06 0)
(-0.0021731 -2.83603e-06 0)
(-0.0021621 -3.36081e-06 0)
(-0.00214924 -3.88192e-06 0)
(-0.00213454 -4.3986e-06 0)
(-0.00211803 -4.91011e-06 0)
(-0.00209972 -5.41572e-06 0)
(-0.00207963 -5.91466e-06 0)
(-0.00205779 -6.40617e-06 0)
(-0.00203423 -6.88951e-06 0)
(-0.00200898 -7.36389e-06 0)
(-0.00198206 -7.82854e-06 0)
(-0.00195353 -8.28269e-06 0)
(-0.00192341 -8.72557e-06 0)
(-0.00189174 -9.1564e-06 0)
(-0.00185858 -9.5744e-06 0)
(-0.00182397 -9.9788e-06 0)
(-0.00178796 -1.03688e-05 0)
(-0.0017506 -1.07437e-05 0)
(-0.00171195 -1.11026e-05 0)
(-0.00167206 -1.14448e-05 0)
(-0.00163099 -1.17695e-05 0)
(-0.00158882 -1.2076e-05 0)
(-0.0015456 -1.23635e-05 0)
(-0.0015014 -1.26313e-05 0)
(-0.0014563 -1.28787e-05 0)
(-0.00141036 -1.31048e-05 0)
(-0.00136367 -1.3309e-05 0)
(-0.0013163 -1.34906e-05 0)
(-0.00126834 -1.36489e-05 0)
(-0.00121986 -1.37832e-05 0)
(-0.00117095 -1.38929e-05 0)
(-0.0011217 -1.39773e-05 0)
(-0.00107221 -1.40358e-05 0)
(-0.00102255 -1.40678e-05 0)
(-0.000972831 -1.40728e-05 0)
(-0.000923143 -1.40501e-05 0)
(-0.000873584 -1.39993e-05 0)
(-0.000824254 -1.39198e-05 0)
(-0.000775252 -1.38111e-05 0)
(-0.000726682 -1.36729e-05 0)
(-0.000678647 -1.35047e-05 0)
(-0.000631251 -1.33061e-05 0)
(-0.000584601 -1.30768e-05 0)
(-0.000538803 -1.28165e-05 0)
(-0.000493964 -1.25249e-05 0)
(-0.000450192 -1.22018e-05 0)
(-0.000407596 -1.18472e-05 0)
(-0.000366283 -1.14608e-05 0)
(-0.000326362 -1.10426e-05 0)
(-0.00028794 -1.05927e-05 0)
(-0.000251124 -1.01112e-05 0)
(-0.00021602 -9.59821e-06 0)
(-0.000182731 -9.05416e-06 0)
(-0.000151359 -8.47946e-06 0)
(-0.000122004 -7.87467e-06 0)
(-9.47607e-05 -7.24059e-06 0)
(-6.9722e-05 -6.57826e-06 0)
(-4.69738e-05 -5.88896e-06 0)
(-2.65965e-05 -5.17427e-06 0)
(-8.66203e-06 -4.43622e-06 0)
(6.76717e-06 -3.67744e-06 0)
(1.9641e-05 -2.90136e-06 0)
(2.99247e-05 -2.11242e-06 0)
(3.76028e-05 -1.31641e-06 0)
(4.26845e-05 -5.21049e-07 0)
(4.52112e-05 2.63248e-07 0)
(4.5266e-05 1.02192e-06 0)
(4.29878e-05 1.7341e-06 0)
(3.85911e-05 2.36906e-06 0)
(3.23961e-05 2.88038e-06 0)
(2.48708e-05 3.19775e-06 0)
(1.66816e-05 3.21643e-06 0)
(8.78063e-06 2.78025e-06 0)
(2.64327e-06 1.69675e-06 0)
(1.21856e-07 1.22195e-07 0)
(1.78386e-06 -2.85648e-06 0)
(9.39762e-06 -9.40071e-06 0)
(2.31529e-05 -1.34157e-05 0)
(3.93949e-05 -1.47306e-05 0)
(5.52827e-05 -1.39685e-05 0)
(6.88198e-05 -1.17015e-05 0)
(7.84669e-05 -8.3728e-06 0)
(8.30665e-05 -4.30985e-06 0)
(8.17854e-05 2.47658e-07 0)
(7.40459e-05 5.12415e-06 0)
(5.94655e-05 1.01892e-05 0)
(3.78093e-05 1.53482e-05 0)
(8.9616e-06 2.05288e-05 0)
(-2.71002e-05 2.56751e-05 0)
(-7.03292e-05 3.07453e-05 0)
(-0.000120621 3.57062e-05 0)
(-0.000177823 4.05315e-05 0)
(-0.000241752 4.52016e-05 0)
(-0.000312192 4.97009e-05 0)
(-0.000388907 5.40171e-05 0)
(-0.000471642 5.81407e-05 0)
(-0.000560128 6.20646e-05 0)
(-0.000654085 6.57833e-05 0)
(-0.000753226 6.9293e-05 0)
(-0.000857255 7.25913e-05 0)
(-0.000965874 7.56766e-05 0)
(-0.00107878 7.85481e-05 0)
(-0.00119567 8.12058e-05 0)
(-0.00131625 8.36504e-05 0)
(-0.0014402 8.58831e-05 0)
(-0.00156723 8.79055e-05 0)
(-0.00169703 8.97195e-05 0)
(-0.00182931 9.13274e-05 0)
(-0.00196377 9.27318e-05 0)
(-0.00210012 9.39354e-05 0)
(-0.00223808 9.49413e-05 0)
(-0.00237736 9.57527e-05 0)
(-0.00251767 9.63729e-05 0)
(-0.00265875 9.68053e-05 0)
(-0.00280033 9.70535e-05 0)
(-0.00294214 9.71213e-05 0)
(-0.00308391 9.70123e-05 0)
(-0.00322541 9.67304e-05 0)
(-0.00336637 9.62793e-05 0)
(-0.00350655 9.56632e-05 0)
(-0.00364572 9.4886e-05 0)
(-0.00378364 9.39516e-05 0)
(-0.00392009 9.28642e-05 0)
(-0.00405484 9.16279e-05 0)
(-0.00418769 9.02466e-05 0)
(-0.00431842 8.87245e-05 0)
(-0.00444682 8.70658e-05 0)
(-0.00457271 8.52746e-05 0)
(-0.00469589 8.3355e-05 0)
(-0.00481618 8.13112e-05 0)
(-0.0049334 7.91475e-05 0)
(-0.00504737 7.6868e-05 0)
(-0.00515793 7.4477e-05 0)
(-0.00526491 7.19787e-05 0)
(-0.00536818 6.93772e-05 0)
(-0.00546756 6.66769e-05 0)
(-0.00556294 6.38819e-05 0)
(-0.00565416 6.09965e-05 0)
(-0.0057411 5.80251e-05 0)
(-0.00582364 5.49721e-05 0)
(-0.00590166 5.18416e-05 0)
(-0.00597504 4.86382e-05 0)
(-0.0060437 4.53662e-05 0)
(-0.00610752 4.203e-05 0)
(-0.00616643 3.8634e-05 0)
(-0.00622032 3.51827e-05 0)
(-0.00626914 3.16806e-05 0)
(-0.0063128 2.81322e-05 0)
(-0.00635124 2.45421e-05 0)
(-0.00638441 2.0915e-05 0)
(-0.00641225 1.72555e-05 0)
(-0.00643472 1.35683e-05 0)
(-0.00645178 9.85806e-06 0)
(-0.00646341 6.12963e-06 0)
(-0.00646958 2.3878e-06 0)
(-0.00647027 -1.36255e-06 0)
(-0.00646548 -5.11652e-06 0)
(-0.0064552 -8.86915e-06 0)
(-0.00643945 -1.26154e-05 0)
(-0.00641823 -1.63503e-05 0)
(-0.00639156 -2.00687e-05 0)
(-0.00635948 -2.37656e-05 0)
(-0.00632202 -2.74356e-05 0)
(-0.00627922 -3.10737e-05 0)
(-0.00623114 -3.46745e-05 0)
(-0.00617782 -3.82329e-05 0)
(-0.00611935 -4.17434e-05 0)
(-0.0060558 -4.52007e-05 0)
(-0.00598724 -4.85995e-05 0)
(-0.00591376 -5.19344e-05 0)
(-0.00583547 -5.51999e-05 0)
(-0.00575247 -5.83906e-05 0)
(-0.00566487 -6.15011e-05 0)
(-0.0055728 -6.45259e-05 0)
(-0.00547639 -6.74596e-05 0)
(-0.00537576 -7.02968e-05 0)
(-0.00527108 -7.3032e-05 0)
(-0.00516248 -7.56599e-05 0)
(-0.00505014 -7.8175e-05 0)
(-0.00493422 -8.0572e-05 0)
(-0.00481489 -8.28456e-05 0)
(-0.00469235 -8.49906e-05 0)
(-0.00456678 -8.70017e-05 0)
(-0.00443839 -8.88738e-05 0)
(-0.00430737 -9.06018e-05 0)
(-0.00417395 -9.21809e-05 0)
(-0.00403834 -9.3606e-05 0)
(-0.00390077 -9.48723e-05 0)
(-0.00376148 -9.59753e-05 0)
(-0.00362071 -9.69103e-05 0)
(-0.0034787 -9.76729e-05 0)
(-0.00333572 -9.82589e-05 0)
(-0.00319201 -9.8664e-05 0)
(-0.00304784 -9.88844e-05 0)
(-0.0029035 -9.89162e-05 0)
(-0.00275924 -9.87558e-05 0)
(-0.00261536 -9.83999e-05 0)
(-0.00247213 -9.78452e-05 0)
(-0.00232986 -9.70888e-05 0)
(-0.00218883 -9.61279e-05 0)
(-0.00204933 -9.49603e-05 0)
(-0.00191168 -9.35836e-05 0)
(-0.00177617 -9.19962e-05 0)
(-0.0016431 -9.01965e-05 0)
(-0.00151279 -8.81834e-05 0)
(-0.00138553 -8.59562e-05 0)
(-0.00126165 -8.35146e-05 0)
(-0.00114143 -8.0859e-05 0)
(-0.00102519 -7.799e-05 0)
(-0.000913232 -7.49091e-05 0)
(-0.000805851 -7.16184e-05 0)
(-0.000703341 -6.81208e-05 0)
(-0.000605992 -6.44203e-05 0)
(-0.000514084 -6.05218e-05 0)
(-0.000427887 -5.64315e-05 0)
(-0.000347662 -5.21573e-05 0)
(-0.000273652 -4.77089e-05 0)
(-0.000206086 -4.30984e-05 0)
(-0.000145168 -3.83403e-05 0)
(-9.10791e-05 -3.3453e-05 0)
(-4.3967e-05 -2.8459e-05 0)
(-3.94083e-06 -2.33864e-05 0)
(2.89387e-05 -1.82707e-05 0)
(5.46703e-05 -1.31565e-05 0)
(7.3327e-05 -8.1012e-06 0)
(8.50756e-05 -3.17882e-06 0)
(9.02006e-05 1.51362e-06 0)
(8.91374e-05 5.84713e-06 0)
(8.25145e-05 9.64779e-06 0)
(7.12091e-05 1.26789e-05 0)
(5.64148e-05 1.46196e-05 0)
(3.96908e-05 1.50463e-05 0)
(2.30216e-05 1.34206e-05 0)
(9.1843e-06 9.1863e-06 0)
(1.69514e-06 2.64189e-06 0)
(2.82756e-06 -9.08086e-06 0)
(1.34166e-05 -2.31589e-05 0)
(3.10868e-05 -3.10751e-05 0)
(5.08655e-05 -3.31448e-05 0)
(6.91536e-05 -3.04707e-05 0)
(8.33883e-05 -2.41449e-05 0)
(9.14871e-05 -1.50964e-05 0)
(9.18102e-05 -4.07031e-06 0)
(8.31227e-05 8.35353e-06 0)
(6.45287e-05 2.17277e-05 0)
(3.54073e-05 3.57058e-05 0)
(-4.644e-06 5.00216e-05 0)
(-5.58499e-05 6.44687e-05 0)
(-0.00011829 7.88837e-05 0)
(-0.000191929 9.31392e-05 0)
(-0.000276642 0.000107135 0)
(-0.000372223 0.00012079 0)
(-0.00047841 0.000134041 0)
(-0.00059489 0.000146837 0)
(-0.00072131 0.000159139 0)
(-0.000857286 0.000170914 0)
(-0.00100241 0.000182139 0)
(-0.00115625 0.000192794 0)
(-0.00131835 0.000202865 0)
(-0.00148827 0.000212342 0)
(-0.00166552 0.000221218 0)
(-0.00184965 0.000229488 0)
(-0.00204016 0.00023715 0)
(-0.00223658 0.000244205 0)
(-0.00243843 0.000250654 0)
(-0.00264522 0.000256501 0)
(-0.00285647 0.000261749 0)
(-0.00307171 0.000266405 0)
(-0.00329047 0.000270474 0)
(-0.00351228 0.000273965 0)
(-0.00373667 0.000276884 0)
(-0.00396319 0.00027924 0)
(-0.00419139 0.000281043 0)
(-0.00442082 0.000282301 0)
(-0.00465105 0.000283025 0)
(-0.00488165 0.000283225 0)
(-0.0051122 0.000282911 0)
(-0.00534229 0.000282094 0)
(-0.00557151 0.000280785 0)
(-0.00579947 0.000278995 0)
(-0.00602579 0.000276735 0)
(-0.00625007 0.000274018 0)
(-0.00647197 0.000270853 0)
(-0.00669111 0.000267254 0)
(-0.00690715 0.000263232 0)
(-0.00711976 0.000258799 0)
(-0.00732859 0.000253966 0)
(-0.00753333 0.000248746 0)
(-0.00773366 0.000243151 0)
(-0.0079293 0.000237193 0)
(-0.00811993 0.000230884 0)
(-0.00830529 0.000224236 0)
(-0.00848511 0.000217262 0)
(-0.00865911 0.000209974 0)
(-0.00882705 0.000202384 0)
(-0.00898869 0.000194505 0)
(-0.0091438 0.00018635 0)
(-0.00929215 0.000177929 0)
(-0.00943354 0.000169258 0)
(-0.00956777 0.000160347 0)
(-0.00969464 0.00015121 0)
(-0.00981397 0.00014186 0)
(-0.0099256 0.000132309 0)
(-0.0100294 0.00012257 0)
(-0.0101251 0.000112657 0)
(-0.0102128 0.000102582 0)
(-0.0102921 9.23588e-05 0)
(-0.010363 8.20008e-05 0)
(-0.0104255 7.15214e-05 0)
(-0.0104794 6.0934e-05 0)
(-0.0105246 5.02523e-05 0)
(-0.0105611 3.94902e-05 0)
(-0.0105887 2.86614e-05 0)
(-0.0106076 1.77801e-05 0)
(-0.0106175 6.86027e-06 0)
(-0.0106186 -4.08374e-06 0)
(-0.0106107 -1.50375e-05 0)
(-0.0105939 -2.59866e-05 0)
(-0.0105682 -3.69163e-05 0)
(-0.0105335 -4.78119e-05 0)
(-0.0104901 -5.86584e-05 0)
(-0.0104378 -6.94409e-05 0)
(-0.0103768 -8.01443e-05 0)
(-0.0103071 -9.07533e-05 0)
(-0.0102288 -0.000101253 0)
(-0.010142 -0.000111627 0)
(-0.0100469 -0.00012186 0)
(-0.00994345 -0.000131937 0)
(-0.00983188 -0.000141843 0)
(-0.00971234 -0.000151561 0)
(-0.00958497 -0.000161075 0)
(-0.00944995 -0.00017037 0)
(-0.00930746 -0.00017943 0)
(-0.00915771 -0.000188239 0)
(-0.0090009 -0.000196782 0)
(-0.00883727 -0.000205042 0)
(-0.00866703 -0.000213004 0)
(-0.00849046 -0.000220652 0)
(-0.0083078 -0.000227971 0)
(-0.00811934 -0.000234945 0)
(-0.00792536 -0.000241559 0)
(-0.00772616 -0.000247797 0)
(-0.00752205 -0.000253645 0)
(-0.00731335 -0.000259087 0)
(-0.00710041 -0.00026411 0)
(-0.00688356 -0.000268698 0)
(-0.00666317 -0.000272839 0)
(-0.00643961 -0.000276517 0)
(-0.00621325 -0.00027972 0)
(-0.0059845 -0.000282435 0)
(-0.00575374 -0.000284648 0)
(-0.00552139 -0.000286349 0)
(-0.00528786 -0.000287524 0)
(-0.0050536 -0.000288163 0)
(-0.00481904 -0.000288256 0)
(-0.00458462 -0.000287792 0)
(-0.0043508 -0.000286761 0)
(-0.00411803 -0.000285155 0)
(-0.00388679 -0.000282966 0)
(-0.00365755 -0.000280187 0)
(-0.00343078 -0.000276811 0)
(-0.00320696 -0.000272833 0)
(-0.00298659 -0.000268247 0)
(-0.00277015 -0.000263052 0)
(-0.00255813 -0.000257243 0)
(-0.00235101 -0.000250822 0)
(-0.0021493 -0.000243786 0)
(-0.00195347 -0.00023614 0)
(-0.001764 -0.000227887 0)
(-0.00158139 -0.000219031 0)
(-0.00140609 -0.000209582 0)
(-0.00123857 -0.000199549 0)
(-0.00107929 -0.000188947 0)
(-0.00092867 -0.000177792 0)
(-0.000787141 -0.000166105 0)
(-0.000655098 -0.000153912 0)
(-0.000532913 -0.000141245 0)
(-0.000420928 -0.000128142 0)
(-0.000319447 -0.00011465 0)
(-0.00022873 -0.000100826 0)
(-0.000148982 -8.67407e-05 0)
(-8.03441e-05 -7.24803e-05 0)
(-2.28758e-05 -5.81516e-05 0)
(2.34584e-05 -4.38875e-05 0)
(5.88127e-05 -2.98548e-05 0)
(8.34863e-05 -1.62638e-05 0)
(9.79565e-05 -3.38221e-06 0)
(0.00010292 8.44704e-06 0)
(9.93405e-05 1.87826e-05 0)
(8.85135e-05 2.70571e-05 0)
(7.21266e-05 3.25506e-05 0)
(5.22855e-05 3.43801e-05 0)
(3.15379e-05 3.15278e-05 0)
(1.34203e-05 2.30232e-05 0)
(2.77737e-06 8.77433e-06 0)
(3.20836e-06 -1.69358e-05 0)
(1.47605e-05 -3.94225e-05 0)
(3.32315e-05 -5.08666e-05 0)
(5.27551e-05 -5.26314e-05 0)
(6.92252e-05 -4.64552e-05 0)
(7.97304e-05 -3.40102e-05 0)
(8.18564e-05 -1.67544e-05 0)
(7.36548e-05 4.09834e-06 0)
(5.3617e-05 2.75674e-05 0)
(2.06126e-05 5.28706e-05 0)
(-2.61672e-05 7.93852e-05 0)
(-8.72665e-05 0.000106617 0)
(-0.00016301 0.000134175 0)
(-0.00025354 0.000161745 0)
(-0.000358845 0.000189076 0)
(-0.000478793 0.000215968 0)
(-0.000613148 0.000242259 0)
(-0.000761592 0.000267818 0)
(-0.000923735 0.000292542 0)
(-0.00109913 0.000316345 0)
(-0.0012873 0.000339162 0)
(-0.00148769 0.000360939 0)
(-0.00169977 0.000381634 0)
(-0.00192293 0.000401215 0)
(-0.00215659 0.000419658 0)
(-0.00240011 0.000436947 0)
(-0.00265288 0.000453068 0)
(-0.00291426 0.000468017 0)
(-0.0031836 0.000481789 0)
(-0.00346026 0.000494388 0)
(-0.00374359 0.000505815 0)
(-0.00403296 0.000516079 0)
(-0.00432772 0.000525188 0)
(-0.00462723 0.000533153 0)
(-0.00493087 0.000539988 0)
(-0.005238 0.000545705 0)
(-0.00554801 0.000550321 0)
(-0.00586029 0.000553853 0)
(-0.00617423 0.000556318 0)
(-0.00648925 0.000557734 0)
(-0.00680476 0.000558122 0)
(-0.00712019 0.0005575 0)
(-0.00743498 0.000555889 0)
(-0.00774858 0.000553311 0)
(-0.00806045 0.000549787 0)
(-0.00837006 0.000545339 0)
(-0.0086769 0.000539988 0)
(-0.00898047 0.000533758 0)
(-0.00928027 0.000526671 0)
(-0.00957583 0.00051875 0)
(-0.00986668 0.000510018 0)
(-0.0101524 0.000500499 0)
(-0.0104325 0.000490216 0)
(-0.0107065 0.000479193 0)
(-0.0109742 0.000467454 0)
(-0.011235 0.000455022 0)
(-0.0114886 0.000441922 0)
(-0.0117346 0.000428177 0)
(-0.0119726 0.000413813 0)
(-0.0122024 0.000398852 0)
(-0.0124235 0.000383321 0)
(-0.0126357 0.000367243 0)
(-0.0128386 0.000350644 0)
(-0.013032 0.000333548 0)
(-0.0132156 0.00031598 0)
(-0.0133892 0.000297965 0)
(-0.0135524 0.00027953 0)
(-0.0137051 0.000260698 0)
(-0.013847 0.000241496 0)
(-0.0139779 0.00022195 0)
(-0.0140977 0.000202085 0)
(-0.0142062 0.000181929 0)
(-0.0143032 0.000161506 0)
(-0.0143886 0.000140844 0)
(-0.0144622 0.00011997 0)
(-0.014524 9.89105e-05 0)
(-0.0145738 7.76929e-05 0)
(-0.0146115 5.63447e-05 0)
(-0.0146372 3.48937e-05 0)
(-0.0146507 1.33677e-05 0)
(-0.014652 -8.20494e-06 0)
(-0.0146411 -2.97958e-05 0)
(-0.014618 -5.13762e-05 0)
(-0.0145827 -7.29172e-05 0)
(-0.0145352 -9.43895e-05 0)
(-0.0144757 -0.000115764 0)
(-0.0144041 -0.000137011 0)
(-0.0143205 -0.0001581 0)
(-0.0142251 -0.000179002 0)
(-0.0141179 -0.000199686 0)
(-0.0139991 -0.000220122 0)
(-0.0138688 -0.000240279 0)
(-0.0137272 -0.000260127 0)
(-0.0135745 -0.000279635 0)
(-0.0134109 -0.000298771 0)
(-0.0132366 -0.000317505 0)
(-0.0130519 -0.000335806 0)
(-0.0128569 -0.000353642 0)
(-0.0126521 -0.000370983 0)
(-0.0124376 -0.000387797 0)
(-0.0122137 -0.000404054 0)
(-0.0119809 -0.000419722 0)
(-0.0117394 -0.000434771 0)
(-0.0114896 -0.000449171 0)
(-0.0112318 -0.00046289 0)
(-0.0109665 -0.0004759 0)
(-0.0106941 -0.000488169 0)
(-0.010415 -0.00049967 0)
(-0.0101297 -0.000510373 0)
(-0.00983851 -0.000520249 0)
(-0.00954203 -0.000529271 0)
(-0.0092407 -0.000537411 0)
(-0.00893504 -0.000544642 0)
(-0.00862557 -0.000550939 0)
(-0.00831282 -0.000556276 0)
(-0.00799732 -0.00056063 0)
(-0.00767966 -0.000563975 0)
(-0.00736039 -0.00056629 0)
(-0.00704009 -0.000567553 0)
(-0.00671938 -0.000567744 0)
(-0.00639884 -0.000566844 0)
(-0.00607909 -0.000564834 0)
(-0.00576077 -0.000561699 0)
(-0.0054445 -0.000557423 0)
(-0.00513092 -0.000551992 0)
(-0.00482068 -0.000545395 0)
(-0.00451443 -0.000537623 0)
(-0.00421282 -0.000528667 0)
(-0.00391652 -0.000518522 0)
(-0.00362617 -0.000507185 0)
(-0.00334244 -0.000494655 0)
(-0.00306599 -0.000480936 0)
(-0.00279746 -0.000466032 0)
(-0.0025375 -0.000449953 0)
(-0.00228676 -0.000432713 0)
(-0.00204585 -0.000414329 0)
(-0.00181539 -0.000394826 0)
(-0.00159597 -0.000374233 0)
(-0.00138816 -0.000352586 0)
(-0.00119253 -0.00032993 0)
(-0.00100957 -0.000306321 0)
(-0.000839771 -0.000281823 0)
(-0.000683569 -0.000256518 0)
(-0.000541343 -0.000230501 0)
(-0.000413414 -0.000203891 0)
(-0.000300025 -0.000176829 0)
(-0.000201331 -0.000149487 0)
(-0.000117378 -0.000122078 0)
(-4.80865e-05 -9.48605e-05 0)
(6.77787e-06 -6.81543e-05 0)
(4.76334e-05 -4.23562e-05 0)
(7.51187e-05 -1.79596e-05 0)
(9.01348e-05 4.41959e-06 0)
(9.38945e-05 2.40128e-05 0)
(8.79787e-05 3.98661e-05 0)
(7.43946e-05 5.08134e-05 0)
(5.55849e-05 5.54712e-05 0)
(3.44544e-05 5.22867e-05 0)
(1.50676e-05 3.97084e-05 0)
(3.21567e-06 1.66743e-05 0)
(3.13632e-06 -2.49215e-05 0)
(1.40545e-05 -5.53818e-05 0)
(3.06953e-05 -6.92361e-05 0)
(4.68148e-05 -6.91398e-05 0)
(5.80275e-05 -5.76046e-05 0)
(6.12021e-05 -3.69322e-05 0)
(5.37276e-05 -9.1283e-06 0)
(3.34686e-05 2.41127e-05 0)
(-1.25657e-06 6.13896e-05 0)
(-5.17355e-05 0.000101558 0)
(-0.000118913 0.000143688 0)
(-0.000203441 0.000187024 0)
(-0.000305724 0.000230956 0)
(-0.000425956 0.000274987 0)
(-0.000564155 0.000318715 0)
(-0.000720187 0.000361814 0)
(-0.000893797 0.000404016 0)
(-0.00108462 0.000445104 0)
(-0.00129222 0.000484903 0)
(-0.00151607 0.000523269 0)
(-0.00175558 0.000560087 0)
(-0.00201014 0.000595263 0)
(-0.00227907 0.000628725 0)
(-0.00256167 0.000660414 0)
(-0.0028572 0.000690285 0)
(-0.00316493 0.000718307 0)
(-0.00348408 0.000744456 0)
(-0.00381387 0.000768718 0)
(-0.00415352 0.000791083 0)
(-0.00450224 0.000811552 0)
(-0.00485922 0.000830127 0)
(-0.00522369 0.000846817 0)
(-0.00559484 0.000861634 0)
(-0.00597189 0.000874595 0)
(-0.00635405 0.000885716 0)
(-0.00674054 0.000895021 0)
(-0.0071306 0.000902533 0)
(-0.00752347 0.000908277 0)
(-0.0079184 0.000912281 0)
(-0.00831464 0.000914574 0)
(-0.00871148 0.000915186 0)
(-0.00910819 0.00091415 0)
(-0.00950408 0.000911498 0)
(-0.00989846 0.000907262 0)
(-0.0102906 0.000901479 0)
(-0.01068 0.000894183 0)
(-0.0110658 0.000885409 0)
(-0.0114476 0.000875195 0)
(-0.0118245 0.000863576 0)
(-0.0121962 0.00085059 0)
(-0.0125619 0.000836275 0)
(-0.0129211 0.000820669 0)
(-0.0132733 0.00080381 0)
(-0.0136179 0.000785736 0)
(-0.0139545 0.000766487 0)
(-0.0142824 0.000746102 0)
(-0.0146012 0.000724619 0)
(-0.0149105 0.000702079 0)
(-0.0152098 0.000678521 0)
(-0.0154987 0.000653986 0)
(-0.0157767 0.000628513 0)
(-0.0160434 0.000602143 0)
(-0.0162986 0.000574916 0)
(-0.0165417 0.000546874 0)
(-0.0167725 0.000518057 0)
(-0.0169907 0.000488508 0)
(-0.0171958 0.000458267 0)
(-0.0173877 0.000427376 0)
(-0.0175661 0.000395878 0)
(-0.0177307 0.000363816 0)
(-0.0178812 0.000331231 0)
(-0.0180176 0.000298167 0)
(-0.0181394 0.000264668 0)
(-0.0182467 0.000230776 0)
(-0.0183391 0.000196538 0)
(-0.0184167 0.000161996 0)
(-0.0184792 0.000127195 0)
(-0.0185265 9.21819e-05 0)
(-0.0185587 5.7001e-05 0)
(-0.0185755 2.16985e-05 0)
(-0.0185771 -1.3679e-05 0)
(-0.0185632 -4.90849e-05 0)
(-0.0185341 -8.44719e-05 0)
(-0.0184896 -0.000119793 0)
(-0.0184298 -0.000154999 0)
(-0.0183548 -0.000190043 0)
(-0.0182646 -0.000224875 0)
(-0.0181594 -0.000259448 0)
(-0.0180393 -0.00029371 0)
(-0.0179044 -0.000327614 0)
(-0.017755 -0.000361109 0)
(-0.0175911 -0.000394145 0)
(-0.017413 -0.000426671 0)
(-0.017221 -0.000458638 0)
(-0.0170152 -0.000489994 0)
(-0.0167961 -0.000520688 0)
(-0.0165637 -0.00055067 0)
(-0.0163186 -0.00057989 0)
(-0.016061 -0.000608295 0)
(-0.0157914 -0.000635836 0)
(-0.01551 -0.000662461 0)
(-0.0152172 -0.000688121 0)
(-0.0149137 -0.000712765 0)
(-0.0145996 -0.000736344 0)
(-0.0142757 -0.000758807 0)
(-0.0139423 -0.000780107 0)
(-0.0135999 -0.000800194 0)
(-0.0132491 -0.000819021 0)
(-0.0128905 -0.000836542 0)
(-0.0125245 -0.000852709 0)
(-0.0121519 -0.000867477 0)
(-0.0117732 -0.000880803 0)
(-0.0113891 -0.000892642 0)
(-0.0110002 -0.000902953 0)
(-0.0106071 -0.000911696 0)
(-0.0102107 -0.000918829 0)
(-0.00981142 -0.000924317 0)
(-0.00941015 -0.000928122 0)
(-0.00900758 -0.00093021 0)
(-0.00860445 -0.000930549 0)
(-0.00820152 -0.000929108 0)
(-0.00779955 -0.000925859 0)
(-0.00739933 -0.000920775 0)
(-0.00700163 -0.000913834 0)
(-0.00660726 -0.000905014 0)
(-0.00621702 -0.000894299 0)
(-0.00583172 -0.000881673 0)
(-0.00545216 -0.000867126 0)
(-0.00507917 -0.000850651 0)
(-0.00471355 -0.000832244 0)
(-0.00435612 -0.000811907 0)
(-0.00400769 -0.000789646 0)
(-0.00366907 -0.000765474 0)
(-0.00334104 -0.000739408 0)
(-0.00302438 -0.000711475 0)
(-0.00271987 -0.000681707 0)
(-0.00242824 -0.000650147 0)
(-0.00215022 -0.000616846 0)
(-0.00188651 -0.000581869 0)
(-0.00163776 -0.000545295 0)
(-0.00140459 -0.000507216 0)
(-0.00118757 -0.000467747 0)
(-0.000987218 -0.000427023 0)
(-0.000803968 -0.000385208 0)
(-0.00063819 -0.000342496 0)
(-0.000490154 -0.000299124 0)
(-0.000360021 -0.000255373 0)
(-0.000247822 -0.000211586 0)
(-0.000153435 -0.000168178 0)
(-7.65559e-05 -0.000125654 0)
(-1.66716e-05 -8.46295e-05 0)
(2.69799e-05 -4.58557e-05 0)
(5.5448e-05 -1.02523e-05 0)
(7.01154e-05 2.10597e-05 0)
(7.2749e-05 4.67221e-05 0)
(6.55525e-05 6.51098e-05 0)
(5.11772e-05 7.43205e-05 0)
(3.27637e-05 7.22107e-05 0)
(1.46915e-05 5.64979e-05 0)
(3.2044e-06 2.48797e-05 0)
(2.775e-06 -3.21009e-05 0)
(1.18695e-05 -6.90747e-05 0)
(2.45686e-05 -8.36655e-05 0)
(3.47121e-05 -7.98091e-05 0)
(3.78501e-05 -6.08452e-05 0)
(3.07372e-05 -2.97315e-05 0)
(1.06644e-05 1.09686e-05 0)
(-2.45998e-05 5.90779e-05 0)
(-7.68324e-05 0.000112769 0)
(-0.000147413 0.000170525 0)
(-0.000237374 0.000231091 0)
(-0.000347438 0.000293431 0)
(-0.000478066 0.000356695 0)
(-0.000629492 0.000420181 0)
(-0.00080175 0.000483314 0)
(-0.00099471 0.000545619 0)
(-0.0012081 0.000606705 0)
(-0.00144152 0.000666252 0)
(-0.00169449 0.000723996 0)
(-0.0019664 0.00077972 0)
(-0.00225663 0.000833248 0)
(-0.00256443 0.000884437 0)
(-0.00288906 0.000933172 0)
(-0.0032297 0.000979361 0)
(-0.00358552 0.00102293 0)
(-0.00395564 0.00106383 0)
(-0.00433917 0.00110202 0)
(-0.00473522 0.00113747 0)
(-0.00514286 0.00117017 0)
(-0.00556117 0.00120011 0)
(-0.00598921 0.00122728 0)
(-0.00642605 0.00125171 0)
(-0.00687077 0.0012734 0)
(-0.00732243 0.00129237 0)
(-0.0077801 0.00130865 0)
(-0.00824288 0.00132227 0)
(-0.00870985 0.00133327 0)
(-0.00918011 0.00134166 0)
(-0.00965278 0.0013475 0)
(-0.010127 0.00135083 0)
(-0.0106018 0.00135169 0)
(-0.0110765 0.00135012 0)
(-0.0115502 0.00134617 0)
(-0.012022 0.00133989 0)
(-0.0124912 0.00133133 0)
(-0.0129569 0.00132054 0)
(-0.0134185 0.00130757 0)
(-0.0138751 0.00129247 0)
(-0.014326 0.00127531 0)
(-0.0147705 0.00125613 0)
(-0.015208 0.00123498 0)
(-0.0156376 0.00121193 0)
(-0.0160589 0.00118703 0)
(-0.016471 0.00116034 0)
(-0.0168735 0.00113191 0)
(-0.0172657 0.0011018 0)
(-0.017647 0.00107007 0)
(-0.0180169 0.00103677 0)
(-0.0183749 0.00100198 0)
(-0.0187203 0.000965733 0)
(-0.0190528 0.000928106 0)
(-0.0193718 0.000889152 0)
(-0.0196769 0.000848933 0)
(-0.0199676 0.000807508 0)
(-0.0202436 0.000764939 0)
(-0.0205044 0.000721287 0)
(-0.0207497 0.000676613 0)
(-0.0209792 0.00063098 0)
(-0.0211924 0.00058445 0)
(-0.0213891 0.000537085 0)
(-0.0215691 0.00048895 0)
(-0.021732 0.000440107 0)
(-0.0218777 0.000390622 0)
(-0.0220058 0.00034056 0)
(-0.0221163 0.000289984 0)
(-0.0222089 0.000238962 0)
(-0.0222835 0.00018756 0)
(-0.02234 0.000135845 0)
(-0.0223783 8.38838e-05 0)
(-0.0223983 3.17451e-05 0)
(-0.0224 -2.05025e-05 0)
(-0.0223834 -7.27899e-05 0)
(-0.0223483 -0.000125047 0)
(-0.022295 -0.000177204 0)
(-0.0222233 -0.00022919 0)
(-0.0221335 -0.000280933 0)
(-0.0220256 -0.000332362 0)
(-0.0218996 -0.000383403 0)
(-0.0217559 -0.000433986 0)
(-0.0215945 -0.000484035 0)
(-0.0214157 -0.000533478 0)
(-0.0212196 -0.00058224 0)
(-0.0210065 -0.000630248 0)
(-0.0207768 -0.000677426 0)
(-0.0205307 -0.000723701 0)
(-0.0202686 -0.000768997 0)
(-0.0199907 -0.000813239 0)
(-0.0196976 -0.000856352 0)
(-0.0193895 -0.000898262 0)
(-0.019067 -0.000938894 0)
(-0.0187306 -0.000978174 0)
(-0.0183806 -0.00101603 0)
(-0.0180176 -0.00105238 0)
(-0.0176421 -0.00108716 0)
(-0.0172548 -0.00112029 0)
(-0.0168561 -0.00115171 0)
(-0.0164468 -0.00118133 0)
(-0.0160274 -0.0012091 0)
(-0.0155987 -0.00123494 0)
(-0.0151612 -0.00125879 0)
(-0.0147158 -0.00128057 0)
(-0.014263 -0.00130023 0)
(-0.0138038 -0.0013177 0)
(-0.0133388 -0.00133292 0)
(-0.0128689 -0.00134583 0)
(-0.0123949 -0.00135637 0)
(-0.0119175 -0.0013645 0)
(-0.0114377 -0.00137014 0)
(-0.0109563 -0.00137327 0)
(-0.0104742 -0.00137382 0)
(-0.00999234 -0.00137176 0)
(-0.00951154 -0.00136704 0)
(-0.00903276 -0.00135963 0)
(-0.00855694 -0.0013495 0)
(-0.00808501 -0.00133662 0)
(-0.00761792 -0.00132095 0)
(-0.00715664 -0.0013025 0)
(-0.00670211 -0.00128123 0)
(-0.00625529 -0.00125715 0)
(-0.00581715 -0.00123024 0)
(-0.00538864 -0.00120052 0)
(-0.0049707 -0.001168 0)
(-0.00456428 -0.0011327 0)
(-0.00417031 -0.00109465 0)
(-0.0037897 -0.00105389 0)
(-0.00342333 -0.00101048 0)
(-0.00307207 -0.00096448 0)
(-0.00273677 -0.000915973 0)
(-0.00241821 -0.000865059 0)
(-0.00211716 -0.00081186 0)
(-0.00183432 -0.000756519 0)
(-0.00157033 -0.000699208 0)
(-0.00132579 -0.000640133 0)
(-0.00110117 -0.000579538 0)
(-0.000896892 -0.000517713 0)
(-0.000713238 -0.000455004 0)
(-0.000550376 -0.000391824 0)
(-0.000408323 -0.000328669 0)
(-0.000286923 -0.000266129 0)
(-0.000185822 -0.000204918 0)
(-0.000104438 -0.000145889 0)
(-4.19242e-05 -9.00732e-05 0)
(2.86634e-06 -3.87079e-05 0)
(3.14217e-05 6.72275e-06 0)
(4.56176e-05 4.44503e-05 0)
(4.77661e-05 7.23856e-05 0)
(4.06331e-05 8.80953e-05 0)
(2.74946e-05 8.88094e-05 0)
(1.28357e-05 7.1447e-05 0)
(2.90109e-06 3.24554e-05 0)
(2.23098e-06 -3.7835e-05 0)
(8.6443e-06 -7.89918e-05 0)
(1.57725e-05 -9.21103e-05 0)
(1.78874e-05 -8.2268e-05 0)
(1.06656e-05 -5.36111e-05 0)
(-9.15545e-06 -9.74643e-06 0)
(-4.43013e-05 4.62125e-05 0)
(-9.70262e-05 0.000111612 0)
(-0.000169141 0.000184204 0)
(-0.000262064 0.000262097 0)
(-0.000376868 0.000343707 0)
(-0.000514315 0.000427708 0)
(-0.000674897 0.000512997 0)
(-0.000858866 0.000598655 0)
(-0.00106627 0.000683915 0)
(-0.00129696 0.000768141 0)
(-0.00155067 0.000850804 0)
(-0.00182695 0.000931463 0)
(-0.00212528 0.00100975 0)
(-0.00244501 0.00108537 0)
(-0.00278543 0.00115808 0)
(-0.00314575 0.00122766 0)
(-0.0035251 0.00129395 0)
(-0.00392261 0.00135682 0)
(-0.00433732 0.00141617 0)
(-0.00476826 0.00147191 0)
(-0.00521444 0.00152398 0)
(-0.00567483 0.00157235 0)
(-0.0061484 0.00161697 0)
(-0.00663409 0.00165784 0)
(-0.00713086 0.00169495 0)
(-0.00763763 0.00172831 0)
(-0.00815336 0.00175794 0)
(-0.00867699 0.00178386 0)
(-0.00920745 0.0018061 0)
(-0.0097437 0.0018247 0)
(-0.0102847 0.00183969 0)
(-0.0108294 0.00185113 0)
(-0.0113769 0.00185907 0)
(-0.011926 0.00186356 0)
(-0.0124759 0.00186465 0)
(-0.0130254 0.00186241 0)
(-0.0135738 0.0018569 0)
(-0.01412 0.00184819 0)
(-0.0146631 0.00183634 0)
(-0.0152022 0.00182142 0)
(-0.0157364 0.00180351 0)
(-0.0162648 0.00178266 0)
(-0.0167867 0.00175897 0)
(-0.0173011 0.00173249 0)
(-0.0178074 0.00170331 0)
(-0.0183046 0.00167151 0)
(-0.018792 0.00163715 0)
(-0.019269 0.00160032 0)
(-0.0197347 0.0015611 0)
(-0.0201885 0.00151956 0)
(-0.0206297 0.00147578 0)
(-0.0210577 0.00142985 0)
(-0.0214718 0.00138185 0)
(-0.0218715 0.00133185 0)
(-0.0222561 0.00127993 0)
(-0.0226252 0.00122619 0)
(-0.0229781 0.00117071 0)
(-0.0233145 0.00111356 0)
(-0.0236337 0.00105483 0)
(-0.0239354 0.000994605 0)
(-0.0242192 0.000932973 0)
(-0.0244845 0.000870017 0)
(-0.0247312 0.000805825 0)
(-0.0249587 0.000740481 0)
(-0.0251668 0.000674076 0)
(-0.0253552 0.000606696 0)
(-0.0255236 0.00053843 0)
(-0.0256717 0.000469369 0)
(-0.0257994 0.000399603 0)
(-0.0259064 0.000329222 0)
(-0.0259926 0.000258318 0)
(-0.0260578 0.000186985 0)
(-0.026102 0.000115314 0)
(-0.026125 4.34017e-05 0)
(-0.0261268 -2.86588e-05 0)
(-0.0261074 -0.000100771 0)
(-0.0260667 -0.00017284 0)
(-0.0260049 -0.000244767 0)
(-0.0259219 -0.000316455 0)
(-0.0258178 -0.000387805 0)