/*--------------------------------*- C++ -*----------------------------------*\
  =========                 |
  \\      /  F ield         | OpenFOAM: The Open Source CFD Toolbox
   \\    /   O peration     | Website:  https://openfoam.org
    \\  /    A nd           | Version:  7
     \\/     M anipulation  |
\*---------------------------------------------------------------------------*/
FoamFile
{
    version     2.0;
    format      ascii;
    class       volScalarField;
    location    "0.2";
    object      p;
}
// * * * * * * * * * * * * * * * * * * * * * * * * * * * * * * * * * * * * * //

dimensions      [0 2 -2 0 0 0 0];

internalField   nonuniform List<scalar> 
6400
(
8.31548e-08
1.24032e-05
-0.000493913
-0.00152603
-0.00296746
-0.00470784
-0.006647
-0.00869537
-0.0107759
-0.0128232
-0.0147821
-0.0166066
-0.0182582
-0.0197052
-0.0209219
-0.0218875
-0.022586
-0.023005
-0.0231361
-0.0229739
-0.022516
-0.0217623
-0.0207155
-0.0193799
-0.0177622
-0.0158704
-0.0137145
-0.0113058
-0.00865682
-0.00578154
-0.00269493
0.000586973
0.00404715
0.00766776
0.0114302
0.015315
0.0193023
0.0233714
0.0275013
0.0316704
0.0358571
0.0400391
0.0441943
0.0483004
0.0523351
0.0562763
0.0601023
0.0637917
0.0673236
0.0706777
0.0738346
0.0767759
0.079484
0.081943
0.0841383
0.0860567
0.0876872
0.0890205
0.0900496
0.09077
0.0911798
0.0912798
0.0910741
0.0905701
0.0897787
0.0887151
0.0873986
0.0858532
0.0841083
0.0821992
0.0801675
0.0780623
0.0759412
0.073871
0.0719293
0.0702044
0.0687934
0.0678004
0.067332
0.0673689
-1.02827e-05
2.68826e-06
-0.000450626
-0.00133329
-0.00254624
-0.00401029
-0.00564949
-0.0073916
-0.00917138
-0.0109317
-0.0126228
-0.0142024
-0.0156342
-0.0168881
-0.0179389
-0.0187663
-0.0193542
-0.0196899
-0.0197643
-0.0195716
-0.0191083
-0.0183737
-0.0173692
-0.0160984
-0.0145666
-0.012781
-0.0107504
-0.00848481
-0.00599579
-0.003296
-0.000399222
0.00267969
0.00592497
0.00932001
0.0128474
0.0164891
0.0202264
0.0240401
0.0279103
0.031817
0.0357397
0.0396578
0.0435504
0.0473967
0.0511759
0.0548676
0.0584513
0.0619071
0.0652157
0.0683584
0.0713172
0.0740751
0.0766163
0.0789261
0.0809913
0.0828003
0.0843431
0.0856118
0.0866006
0.0873059
0.0877268
0.0878649
0.087725
0.0873148
0.0866457
0.0857325
0.0845944
0.0832546
0.0817412
0.0800875
0.0783322
0.0765202
0.0747032
0.0729393
0.0712941
0.0698386
0.0686461
0.0677913
0.0673676
0.0674054
0.000497254
0.000458788
5.14158e-06
-0.000810142
-0.00189999
-0.00320107
-0.00465227
-0.00619353
-0.00776925
-0.00932948
-0.0108299
-0.012232
-0.0135023
-0.0146125
-0.0155389
-0.0162618
-0.0167653
-0.0170372
-0.0170683
-0.0168522
-0.0163851
-0.0156658
-0.0146951
-0.0134758
-0.0120125
-0.0103115
-0.00838081
-0.00622959
-0.00386843
-0.00130905
0.0014357
0.00435196
0.00742497
0.0106391
0.0139781
0.0174248
0.0209616
0.0245705
0.0282326
0.0319291
0.0356405
0.0393473
0.04303
0.0466687
0.0502441
0.0537366
0.0571272
0.0603972
0.0635284
0.0665032
0.0693049
0.0719177
0.0743268
0.0765188
0.0784813
0.080204
0.0816777
0.0828955
0.0838523
0.0845454
0.0849742
0.085141
0.0850508
0.0847115
0.0841342
0.0833337
0.0823282
0.0811399
0.0797954
0.0783255
0.0767661
0.075158
0.0735469
0.0719841
0.0705251
0.0692293
0.068156
0.0673651
0.0669423
0.0669388
0.001531
0.00134546
0.000821847
3.11721e-06
-0.00104414
-0.00226647
-0.00361209
-0.00503037
-0.00647376
-0.00789865
-0.00926592
-0.0105409
-0.0116932
-0.0126969
-0.0135297
-0.0141732
-0.0146124
-0.0148354
-0.0148333
-0.0145996
-0.0141306
-0.0134247
-0.0124823
-0.0113058
-0.00989925
-0.00826839
-0.00642043
-0.00436395
-0.00210879
0.0003341
0.00295264
0.00573383
0.00866373
0.0117276
0.01491
0.0181947
0.0215651
0.0250038
0.0284932
0.0320153
0.0355515
0.0390834
0.0425923
0.0460596
0.0494666
0.0527949
0.0560264
0.0591434
0.0621287
0.0649658
0.0676387
0.0701327
0.0724339
0.0745296
0.0764084
0.0780607
0.079478
0.080654
0.0815842
0.0822663
0.0827001
0.0828882
0.0828354
0.0825496
0.0820416
0.0813253
0.0804182
0.079341
0.0781185
0.0767793
0.0753558
0.0738848
0.0724071
0.0709672
0.0696133
0.0683956
0.0673646
0.0665719
0.0660854
0.0659489
0.00297992
0.00256794
0.00191646
0.0010448
-9.94257e-06
-0.00120295
-0.00249043
-0.00383009
-0.00518178
-0.00650797
-0.00777455
-0.00895081
-0.0100097
-0.0109275
-0.0116841
-0.0122624
-0.0126484
-0.012831
-0.0128017
-0.0125544
-0.0120852
-0.0113925
-0.0104766
-0.00933947
-0.00798477
-0.00641779
-0.00464517
-0.0026749
-0.000516141
0.00182078
0.00432452
0.00698281
0.00978249
0.0127096
0.0157495
0.0188869
0.0221059
0.0253901
0.0287226
0.0320862
0.0354635
0.0388368
0.0421882
0.0455002
0.0487549
0.0519348
0.0550227
0.0580018
0.0608558
0.0635689
0.0661261
0.0685134
0.0707177
0.0727271
0.0745309
0.0761198
0.0774864
0.0786245
0.0795301
0.0802012
0.0806379
0.0808425
0.08082
0.0805779
0.0801263
0.0794785
0.0786506
0.077662
0.0765353
0.0752965
0.073975
0.0726034
0.0712176
0.0698563
0.0685604
0.0673723
0.0663353
0.065493
0.0648864
0.0645379
0.00474182
0.00405321
0.00323084
0.00226609
0.00116257
-4.26413e-05
-0.00131239
-0.00261193
-0.0039078
-0.00516819
-0.00636366
-0.00746748
-0.00845577
-0.00930752
-0.0100045
-0.0105313
-0.0108752
-0.0110259
-0.0109756
-0.0107185
-0.0102511
-0.00957176
-0.00868064
-0.00757956
-0.00627198
-0.00476275
-0.00305809
-0.00116549
0.000906428
0.00314794
0.00554835
0.00809605
0.0107786
0.0135826
0.0164944
0.0194993
0.0225822
0.0257274
0.028919
0.0321405
0.0353753
0.0386064
0.0418169
0.0449899
0.0481086
0.051156
0.054116
0.0569723
0.0597094
0.0623124
0.0647669
0.0670596
0.0691781
0.071111
0.0728482
0.074381
0.0757023
0.0768063
0.0776893
0.0783493
0.0787866
0.0790033
0.0790041
0.0787961
0.0783886
0.077794
0.0770272
0.0761058
0.0750504
0.0738844
0.0726339
0.0713278
0.0699974
0.0686757
0.0673975
0.066198
0.0651143
0.0641829
0.0634136
0.0628022
0.00672608
0.00573269
0.00470976
0.00362036
0.00243424
0.00118189
-0.000104916
-0.00139814
-0.00267029
-0.00389468
-0.0050463
-0.00610219
-0.00704159
-0.00784606
-0.0084995
-0.00898823
-0.00930081
-0.00942799
-0.00936268
-0.00909978
-0.00863608
-0.00797011
-0.0071021
-0.00603382
-0.00476852
-0.00331082
-0.00166659
0.000157089
0.00215201
0.00430899
0.00661788
0.00906765
0.0116464
0.0143417
0.0171401
0.0200278
0.0229904
0.026013
0.0290802
0.0321764
0.0352855
0.0383915
0.0414782
0.0445292
0.0475284
0.0504599
0.0533078
0.0560568
0.058692
0.061199
0.0635642
0.0657747
0.0678186
0.0696851
0.0713645
0.0728484
0.07413
0.0752039
0.0760663
0.0767153
0.077151
0.0773755
0.0773929
0.0772097
0.0768346
0.0762786
0.0755555
0.0746811
0.073674
0.0725549
0.0713471
0.0700756
0.0687676
0.0674513
0.0661557
0.0649098
0.0637457
0.0626939
0.0617318
0.0608283
0.00885354
0.00754207
0.00629955
0.00506239
0.00376761
0.00244049
0.0011084
-0.000206446
-0.00148181
-0.00269562
-0.00382695
-0.00485629
-0.00576588
-0.00653981
-0.00716412
-0.00762682
-0.00791788
-0.00802922
-0.0079546
-0.00768955
-0.00723134
-0.0065788
-0.00573232
-0.00469374
-0.0034662
-0.00205416
-0.000463259
0.00129973
0.00322699
0.00530975
0.00753834
0.00990222
0.0123901
0.0149899
0.0176891
0.0204743
0.0233317
0.0262471
0.0292057
0.0321925
0.0351922
0.0381893
0.0411682
0.0441133
0.0470091
0.0498401
0.0525913
0.0552478
0.0577953
0.0602198
0.0625082
0.0646483
0.0666283
0.068438
0.0700679
0.0715099
0.0727572
0.0738047
0.0746486
0.0752868
0.0757193
0.0759476
0.0759757
0.075809
0.0754556
0.0749253
0.0742304
0.0733852
0.0724061
0.0713114
0.0701216
0.0688583
0.0675449
0.0662054
0.0648637
0.0635434
0.0622726
0.0610769
0.0599025
0.0586925
0.0110574
0.00942396
0.00795081
0.0065497
0.00512686
0.00370352
0.00230363
0.000944412
-0.000356481
-0.00158111
-0.00271215
-0.00373335
-0.00462974
-0.00538781
-0.0059957
-0.00644309
-0.00672141
-0.00682376
-0.00674483
-0.00648089
-0.00602972
-0.00539057
-0.00456408
-0.0035522
-0.00235809
-0.000986121
0.00055821
0.00226835
0.00413682
0.00615518
0.00831415
0.0106036
0.0130128
0.0155301
0.0181434
0.02084
0.0236066
0.0264295
0.0292946
0.0321873
0.0350929
0.0379966
0.0408832
0.0437378
0.0465453
0.0492909
0.0519599
0.0545379
0.0570111
0.059366
0.0615898
0.0636706
0.0655971
0.0673591
0.0689475
0.0703543
0.0715728
0.0725977
0.0734252
0.0740531
0.074481
0.0747101
0.0747435
0.0745862
0.0742452
0.0737291
0.073049
0.0722173
0.0712486
0.070159
0.0689661
0.0676887
0.0663468
0.0649605
0.0635494
0.0621327
0.0607352
0.0593789
0.0579804
0.0564589
0.0132818
0.0113283
0.00961911
0.0080433
0.00647828
0.00494229
0.00345681
0.00203486
0.000690037
-0.00056328
-0.00171097
-0.00273975
-0.00363725
-0.00439225
-0.00499479
-0.00543628
-0.00570957
-0.00580896
-0.00573009
-0.00547001
-0.00502712
-0.00440113
-0.00359299
-0.00260481
-0.00143988
-0.00010257
0.00140172
0.00306662
0.00488486
0.00684827
0.0089479
0.011174
0.0135162
0.0159634
0.0185038
0.0211253
0.0238149
0.0265596
0.0293455
0.0321589
0.0349853
0.0378104
0.0406197
0.0433986
0.0461324
0.0488069
0.0514077
0.0539208
0.0563328
0.0586306
0.0608015
0.062834
0.0647169
0.0664402
0.067995
0.0693732
0.0705681
0.0715743
0.072388
0.0730065
0.073429
0.0736562
0.0736907
0.0735367
0.0732
0.0726883
0.0720112
0.0711796
0.0702061
0.0691049
0.0678911
0.0665809
0.0651911
0.0637387
0.0622397
0.0607093
0.0591702
0.0576418
0.0560128
0.0541808
0.0154801
0.0132118
0.0112649
0.00950759
0.00779038
0.00612944
0.00454453
0.00304515
0.00164144
0.000344716
-0.000833812
-0.00188347
-0.00279425
-0.00355709
-0.00416381
-0.00460751
-0.00488243
-0.00498399
-0.00490885
-0.00465488
-0.00422111
-0.00360776
-0.00281613
-0.00184861
-0.000708634
0.00059938
0.00207005
0.0036971
0.00547342
0.00739107
0.00944135
0.0116148
0.0139015
0.0162905
0.0187705
0.0213298
0.0239559
0.026636
0.0293569
0.0321051
0.0348667
0.0376278
0.0403741
0.0430916
0.045766
0.0483832
0.0509294
0.0533909
0.0557544
0.058007
0.0601365
0.0621313
0.0639804
0.065674
0.0672029
0.0685591
0.0697359
0.0707277
0.0715302
0.0721406
0.0725575
0.0727812
0.0728134
0.0726574
0.0723183
0.0718027
0.0711185
0.0702755
0.0692845
0.0681576
0.0669078
0.0655491
0.0640956
0.0625615
0.0609597
0.0593024
0.0576108
0.0559024
0.0540405
0.0519023
0.017613
0.0150368
0.0128531
0.0109103
0.00903408
0.00723916
0.00554421
0.00395578
0.00248118
0.00112904
-9.20084e-05
-0.0011736
-0.0021079
-0.00288772
-0.00350669
-0.00395945
-0.00424153
-0.00434953
-0.00428109
-0.00403487
-0.00361062
-0.00300906
-0.00223189
-0.00128183
-0.000162511
0.00112154
0.00256493
0.00416141
0.00590395
0.00778481
0.00979547
0.0119267
0.0141688
0.0165113
0.0189432
0.0214529
0.0240285
0.0266574
0.0293269
0.0320237
0.0347345
0.0374455
0.0401429
0.0428129
0.0454416
0.0480151
0.05052
0.0529427
0.05527
0.0574894
0.0595887
0.0615563
0.0633813
0.0650539
0.0665648
0.0679059
0.0690703
0.070052
0.0708466
0.0714506
0.0718624
0.0720814
0.0721088
0.071947
0.0716
0.0710734
0.070374
0.0695099
0.0684905
0.0673261
0.066028
0.0646078
0.0630775
0.0614491
0.059733
0.0579386
0.0560865
0.0541934
0.0520984
0.0496598
0.0196471
0.0167706
0.0143523
0.0122223
0.0101825
0.00824714
0.00643414
0.0047477
0.0031927
0.00177544
0.000502377
-0.000620197
-0.00158642
-0.00239082
-0.00302872
-0.00349613
-0.00378989
-0.00390769
-0.00384815
-0.00361076
-0.00319593
-0.00260492
-0.0018399
-0.0009039
0.000199187
0.00146467
0.0028871
0.0044602
0.00617702
0.00802988
0.0100104
0.0121097
0.0143181
0.0166254
0.0190209
0.0214934
0.0240311
0.0266218
0.0292532
0.0319121
0.0345856
0.0372602
0.0399223
0.0425585
0.045155
0.0476982
0.0501746
0.0525711
0.0548746
0.0570724
0.0591525
0.0611033
0.062914
0.0645743
0.0660752
0.0674082
0.068566
0.0695425
0.0703327
0.0709329
0.0713406
0.0715548
0.0715757
0.0714052
0.0710461
0.070503
0.0697815
0.0688885
0.0678318
0.0666203
0.0652635
0.0637712
0.0621537
0.0604209
0.0585813
0.0566422
0.0546241
0.0525432
0.0502163
0.0474838
0.0215538
0.0183845
0.0157347
0.0134169
0.0112109
0.00913055
0.0071936
0.00540231
0.00375947
0.00226943
0.00093677
-0.000234083
-0.00123897
-0.00207412
-0.00273629
-0.00322282
-0.00353174
-0.00366186
-0.00361272
-0.0033846
-0.00297856
-0.00239645
-0.00164093
-0.000715375
0.000376055
0.00162848
0.00303631
0.00459322
0.00629227
0.00812584
0.0100857
0.0121629
0.0143482
0.0166315
0.0190023
0.0214495
0.0239618
0.0265271
0.0291332
0.0317675
0.034417
0.0370686
0.0397089
0.0423245
0.044902
0.0474279
0.0498888
0.0522715
0.0545631
0.0567509
0.0588229
0.0607674
0.0625734
0.0642306
0.0657295
0.0670615
0.0682191
0.0691957
0.0699857
0.0705849
0.0709904
0.0712003
0.0712142
0.071033
0.0706588
0.070095
0.0693461
0.0684179
0.0673168
0.0660503
0.0646264
0.0630536
0.0613404
0.0594952
0.0575249
0.0554354
0.0532472
0.050977
0.0484199
0.0453999
0.0233082
0.0198532
0.0169752
0.0144701
0.0120964
0.00986795
0.00780279
0.00590149
0.00416511
0.00259637
0.00119819
-2.66877e-05
-0.0010756
-0.0019463
-0.00263685
-0.00314585
-0.0034725
-0.00361662
-0.00357861
-0.00335954
-0.00296116
-0.0023859
-0.00163687
-0.000717848
0.000366711
0.00161171
0.00301138
0.00455933
0.00624856
0.00807148
0.0100199
0.0120851
0.0142577
0.0165279
0.0188854
0.0213192
0.0238182
0.0263706
0.0289643
0.0315868
0.0342254
0.0368671
0.0394988
0.0421071
0.0446786
0.0472001
0.049658
0.0520393
0.0543311
0.0565205
0.0585955
0.0605442
0.0623553
0.0640185
0.0655239
0.0668626
0.0680265
0.0690088
0.0698033
0.0704052
0.0708109
0.071018
0.0710252
0.0708326
0.0704413
0.0698539
0.0690737
0.0681053
0.0669542
0.0656265
0.064129
0.0624687
0.0606531
0.0586893
0.0565828
0.0543385
0.0519774
0.0495168
0.0467315
0.0434295
0.0248882
0.0211539
0.0180511
0.0153596
0.0128174
0.010439
0.00824265
0.00622761
0.00439346
0.00274154
0.00127329
-9.95664e-06
-0.00110698
-0.0020168
-0.00273874
-0.00327258
-0.00361861
-0.00377756
-0.0037507
-0.00353987
-0.00314748
-0.00257653
-0.00183062
-0.000913923
0.000168793
0.00141216
0.00281024
0.00435652
0.00604393
0.00786485
0.00981113
0.0118741
0.0140444
0.0163124
0.0186678
0.0210999
0.0235977
0.0261494
0.0287432
0.0313668
0.0340074
0.0366523
0.0392883
0.0419023
0.0444808
0.0470106
0.0494782
0.0518705
0.0541744
0.0563771
0.0584661
0.0604296
0.0622561
0.0639347
0.0654552
0.0668085
0.0679859
0.06898
0.0697843
0.0703933
0.0708026
0.0710091
0.0710108
0.070807
0.0703979
0.0697849
0.0689707
0.0679588
0.0667534
0.0653596
0.0637833
0.0620303
0.060107
0.0580196
0.0557726
0.0533701
0.0508341
0.0481824
0.0451708
0.0415914
0.026274
0.0222659
0.0189414
0.0160646
0.013354
0.0108244
0.00849485
0.00636343
0.00442848
0.00269012
0.00114849
-0.000196312
-0.00134434
-0.00229576
-0.0030511
-0.00361123
-0.0039774
-0.00415124
-0.00413487
-0.00393084
-0.00354224
-0.00297262
-0.00222605
-0.00130714
-0.00022099
0.00102677
0.00242998
0.003982
0.00567565
0.00750326
0.00945664
0.0115271
0.0137054
0.0159819
0.0183465
0.0207885
0.0232969
0.0258603
0.0284666
0.0311038
0.0337592
0.0364202
0.0390735
0.0417061
0.0443045
0.0468554
0.0493453
0.0517609
0.054089
0.0563167
0.0584313
0.0604204
0.0622725
0.0639762
0.065521
0.0668972
0.0680957
0.0691085
0.0699284
0.0705494
0.0709663
0.0711754
0.0711738
0.0709599
0.0705332
0.0698942
0.0690444
0.0679865
0.0667239
0.0652606
0.0636016
0.0617517
0.0597167
0.0575018
0.055111
0.0525476
0.0498349
0.0469918
0.0437551
0.0399019
0.0274474
0.0231701
0.0196266
0.0165658
0.013687
0.0110057
0.0085417
0.00629214
0.00425432
0.00242723
0.000809964
-0.00059853
-0.0017994
-0.00279396
-0.00358379
-0.00417076
-0.00455701
-0.00474507
-0.00473784
-0.00453859
-0.00415104
-0.00357929
-0.0028279
-0.0019019
-0.000806745
0.000451659
0.00186693
0.00343224
0.0051403
0.00698333
0.00895309
0.0110409
0.0132375
0.0155333
0.0179182
0.0203815
0.0229124
0.0254994
0.0281307
0.0307941
0.0334771
0.0361669
0.0388505
0.0415146
0.0441457
0.0467305
0.0492554
0.0517068
0.0540714
0.0563359
0.0584875
0.0605135
0.0624018
0.0641407
0.0657193
0.0671273
0.068355
0.0693938
0.070236
0.0708747
0.0713042
0.0715198
0.0715179
0.0712961
0.070853
0.0701882
0.0693024
0.0681975
0.0668758
0.0653407
0.0635961
0.0616464
0.0594965
0.0571512
0.0546137
0.0518874
0.0489965
0.0459613
0.0425003
0.0383755
0.0283916
0.0238487
0.0200885
0.0168448
0.0137982
0.0109651
0.00836591
0.00599716
0.00385514
0.00193794
0.000243695
-0.0012297
-0.00248439
-0.00352275
-0.00434732
-0.00496084
-0.00536638
-0.0055673
-0.00556723
-0.00537014
-0.00498036
-0.00440255
-0.00364177
-0.00270345
-0.0015934
-0.000317835
0.00111663
0.00270295
0.0044337
0.006301
0.0082965
0.0104115
0.0126367
0.0149625
0.0173787
0.019875
0.0224401
0.0250629
0.0277314
0.0304335
0.0331568
0.0358883
0.038615
0.0413236
0.0440005
0.046632
0.0492046
0.0517044
0.0541179
0.0564315
0.0586319
0.0607062
0.0626417
0.0644264
0.0660487
0.0674978
0.0687635
0.0698364
0.070708
0.0713709
0.0718186
0.0720455
0.0720474
0.0718207
0.0713634
0.0706743
0.0697532
0.068601
0.0672195
0.0656112
0.0637794
0.0617277
0.0594606
0.0569825
0.0542963
0.051405
0.0483344
0.0451065
0.041421
0.0370256
0.0290905
0.0242846
0.0203094
0.0168838
0.01367
0.0106851
0.00795051
0.00546206
0.00321519
0.00120723
-0.000564594
-0.0021033
-0.00341202
-0.00449403
-0.00535274
-0.00599181
-0.00641514
-0.00662687
-0.00663136
-0.00643325
-0.00603745
-0.00544919
-0.00467401
-0.00371776
-0.00258661
-0.00128708
0.000173937
0.00178921
0.00355111
0.00545164
0.00748235
0.00963441
0.0118986
0.0142651
0.0167239
0.0192645
0.0218757
0.0245463
0.0272644
0.0300178
0.032794
0.0355801
0.0383629
0.041129
0.0438646
0.046556
0.0491893
0.0517503
0.0542253
0.0566003
0.0588617
0.060996
0.0629902
0.0648317
0.0665082
0.0680084
0.0693213
0.070437
0.0713462
0.0720406
0.0725129
0.0727569
0.0727673
0.0725398
0.0720716
0.0713604
0.0704056
0.0692071
0.067766
0.0660841
0.064164
0.062009
0.059623
0.0570103
0.0541734
0.0511155
0.0478638
0.0444418
0.0405312
0.0358648
0.0295285
0.0244615
0.0202725
0.0166658
0.0132851
0.0101486
0.00727869
0.00467044
0.00231866
0.000219888
-0.00162946
-0.00323323
-0.00459543
-0.00572019
-0.00661176
-0.00727467
-0.00771363
-0.00793349
-0.00793934
-0.00773644
-0.00733032
-0.00672674
-0.00593172
-0.00495154
-0.00379273
-0.00246215
-0.000966935
0.000685438
0.00248714
0.00443002
0.00650552
0.00870471
0.0110182
0.0134364
0.0159489
0.0185453
0.0212145
0.023945
0.0267251
0.0295424
0.0323843
0.0352379
0.0380899
0.0409266
0.0437341
0.0464985
0.0492055
0.0518409
0.0543903
0.0568395
0.0591744
0.061381
0.0634457
0.0653554
0.0670973
0.0686591
0.0700294
0.0711972
0.0721527
0.0728867
0.073391
0.0736586
0.0736832
0.07346
0.0729849
0.0722552
0.0712691
0.0700261
0.0685264
0.0667713
0.0647628
0.0625038
0.0599979
0.0572492
0.0542601
0.0510338
0.0475993
0.0439815
0.0398442
0.0349051
0.0296903
0.0243631
0.0199611
0.0161736
0.0126265
0.00933879
0.00633372
0.00360594
0.00114958
-0.00103956
-0.00296578
-0.00463371
-0.00604818
-0.00721411
-0.00813662
-0.00882103
-0.0092728
-0.00949751
-0.00950091
-0.00928892
-0.00886765
-0.00824341
-0.00742268
-0.00641217
-0.00521879
-0.00384973
-0.0023124
-0.000614538
0.00123583
0.00323038
0.00536041
0.00761687
0.00999033
0.012471
0.0150485
0.0177123
0.0204514
0.023254
0.0261085
0.0290023
0.0319229
0.034857
0.0377913
0.0407118
0.0436047
0.0464555
0.0492496
0.0519726
0.0546097
0.0571462
0.0595675
0.0618591
0.0640068
0.0659968
0.0678157
0.0694504
0.0708887
0.0721189
0.0731303
0.0739128
0.0744573
0.0747559
0.0748016
0.0745884
0.0741116
0.0733676
0.0723538
0.0710689
0.0695126
0.0676855
0.0655891
0.0632261
0.0605996
0.0577138
0.0545712
0.0511748
0.0475555
0.0437398
0.0393733
0.0341588
0.0295609
0.0239735
0.0193585
0.0153906
0.0116773
0.00823857
0.00509878
0.00225203
-0.00030824
-0.00258684
-0.00458875
-0.00631939
-0.0077843
-0.00898924
-0.00994015
-0.0106431
-0.0111042
-0.0113299
-0.0113265
-0.0111006
-0.0106588
-0.0100081
-0.00915532
-0.00810766
-0.00687242
-0.00545711
-0.00386947
-0.00211746
-0.000209331
0.0018464
0.00404088
0.00636493
0.008809
0.0113632
0.0140171
0.0167601
0.0195809
0.022468
0.0254094
0.0283925
0.0314047
0.0344325
0.0374624
0.0404803
0.043472
0.0464228
0.0493178
0.0521421
0.0548805
0.0575178
0.0600388
0.0624286
0.0646723
0.0667553
0.0686635
0.0703831
0.0719009
0.0732045
0.0742821
0.0751229
0.0757168
0.0760548
0.0761292
0.0759329
0.0754605
0.0747074
0.0736703
0.0723472
0.0707369
0.0688397
0.0666567
0.0641901
0.0614429
0.0584193
0.0551217
0.0515535
0.0477471
0.043731
0.039132
0.0336378
0.0291248
0.0232765
0.0184482
0.0142997
0.0104202
0.00683087
0.00355687
0.000591895
-0.00207128
-0.00443801
-0.00651397
-0.0083053
-0.00981831
-0.0110595
-0.0120357
-0.0127536
-0.0132201
-0.0134422
-0.0134271
-0.0131818
-0.0127137
-0.0120302
-0.0111386
-0.0100466
-0.00876183
-0.00729217
-0.00564567
-0.00383058
-0.00185533
0.000271321
0.00254038
0.0049425
0.00746803
0.0101069
0.0128487
0.0156827
0.0185974
0.0215813
0.0246222
0.0277076
0.0308244
0.0339593
0.0370983
0.0402273
0.0433316
0.0463963
0.0494061
0.0523457
0.0551994
0.0579515
0.0605862
0.063088
0.0654412
0.0676306
0.0696411
0.0714582
0.0730678
0.0744566
0.0756118
0.0765215
0.0771749
0.0775618
0.0776735
0.0775021
0.0770411
0.0762851
0.07523
0.073873
0.0722124
0.0702478
0.0679799
0.0654107
0.0625432
0.0593812
0.0559274
0.0521853
0.0481892
0.0439696
0.0391341
0.0333549
0.0283665
0.0222557
0.0172132
0.0128837
0.0088381
0.0050983
0.00169068
-0.0013916
-0.00415636
-0.00660952
-0.00875746
-0.010607
-0.0121653
-0.0134395
-0.0144372
-0.0151658
-0.0156331
-0.0158466
-0.0158142
-0.0155437
-0.015043
-0.0143198
-0.0133822
-0.0122381
-0.0108957
-0.00936325
-0.00764904
-0.0057616
-0.00370962
-0.00150205
0.000851909
0.00334279
0.00596078
0.00869572
0.0115371
0.0144739
0.0174948
0.020588
0.0237413
0.0269419
0.0301768
0.0334321
0.036694
0.0399479
0.0431789
0.0463716
0.0495106
0.0525799
0.0555634
0.0584447
0.0612076
0.0638356
0.0663126
0.0686223
0.070749
0.0726772
0.0743918
0.0758784
0.0771234
0.0781139
0.0788377
0.0792839
0.0794426
0.0793049
0.0788633
0.0781116
0.0770448
0.0756592
0.0739526
0.0719241
0.0695739
0.0669036
0.0639162
0.0606156
0.0570043
0.0530862
0.0488977
0.0444709
0.039394
0.0333233
0.0272698
0.0208945
0.0156364
0.0111252
0.0069131
0.00302304
-0.000517546
-0.00371601
-0.00658076
-0.00911835
-0.0113358
-0.0132407
-0.0148408
-0.0161442
-0.0171591
-0.0178937
-0.0183565
-0.0185559
-0.0185002
-0.018198
-0.0176575
-0.0168874
-0.015896
-0.0146918
-0.0132833
-0.0116792
-0.00988803
-0.00791866
-0.00578004
-0.00348132
-0.00103187
0.00155866
0.00428031
0.00712281
0.0100755
0.0131273
0.0162668
0.019482
0.0227606
0.0260897
0.0294559
0.0328455
0.0362442
0.0396371
0.0430091
0.0463445
0.0496273
0.0528411
0.0559692
0.0589948
0.0619008
0.0646701
0.0672857
0.0697306
0.0719881
0.0740416
0.0758752
0.0774734
0.0788215
0.0799053
0.0807117
0.0812287
0.081445
0.081351
0.080938
0.0801987
0.0791274
0.0777195
0.0759722
0.0738839
0.0714544
0.0686851
0.0655788
0.0621394
0.0583696
0.0542733
0.0498891
0.0452509
0.039927
0.0335572
0.0258181
0.0191754
0.0136999
0.00900602
0.00462701
0.000586831
-0.00308602
-0.00639939
-0.00936231
-0.011982
-0.0142661
-0.0162229
-0.017861
-0.0191892
-0.0202164
-0.0209517
-0.0214043
-0.0215832
-0.0214976
-0.0211565
-0.020569
-0.019744
-0.0186906
-0.0174177
-0.0159342
-0.0142491
-0.0123714
-0.0103102
-0.00807475
-0.00567434
-0.00311858
-0.000417296
0.00241943
0.00538118
0.00845718
0.0116363
0.0149068
0.0182569
0.0216738
0.0251447
0.028656
0.0321938
0.0357433
0.0392898
0.0428174
0.0463104
0.049752
0.0531256
0.0564137
0.059599
0.0626637
0.06559
0.0683599
0.0709555
0.0733591
0.0755533
0.0775209
0.0792453
0.0807107
0.0819017
0.0828039
0.0834042
0.0836901
0.0836508
0.0832765
0.082559
0.0814914
0.0800684
0.0782864
0.0761432
0.0736383
0.0707726
0.0675487
0.0639706
0.060041
0.0557643
0.0511809
0.0463267
0.0407493
0.0340716
0.0239941
0.0170806
0.0113854
0.00650747
0.00196096
-0.00222923
-0.0060336
-0.00946047
-0.0125196
-0.0152187
-0.0175662
-0.0195711
-0.0212428
-0.0225908
-0.0236249
-0.024355
-0.0247909
-0.0249425
-0.0248196
-0.024432
-0.0237893
-0.0229011
-0.021777
-0.0204263
-0.0188583
-0.0170826
-0.0151084
-0.0129451
-0.0106022
-0.00808927
-0.00541612
-0.00259272
0.000370695
0.00346359
0.00667507
0.00999384
0.0134082
0.016906
0.0204746
0.0241009
0.0277711
0.0314711
0.035186
0.0389006
0.0425989
0.0462645
0.0498805
0.0534295
0.0568936
0.0602547
0.0634944
0.0665939
0.0695344
0.0722971
0.0748633
0.0772143
0.0793318
0.0811982
0.0827962
0.0841093
0.0851218
0.0858191
0.0861877
0.0862153
0.0858911
0.0852056
0.0841511
0.0827212
0.0809116
0.0787193
0.0761433
0.0731843
0.0698445
0.0661281
0.0620377
0.0575781
0.0527917
0.0477165
0.0418784
0.034883
0.0217797
0.0145913
0.00867367
0.0036102
-0.00110458
-0.00544479
-0.00937987
-0.0129187
-0.0160717
-0.0188473
-0.0212545
-0.0233032
-0.0250035
-0.0263658
-0.0274007
-0.028119
-0.0285312
-0.028648
-0.02848
-0.0280375
-0.027331
-0.0263706
-0.0251664
-0.0237282
-0.022066
-0.0201894
-0.0181083
-0.0158322
-0.013371
-0.0107344
-0.00793251
-0.00497539
-0.00187343
0.0013627
0.00472199
0.00819306
0.0117641
0.0154228
0.0191565
0.0229519
0.026795
0.0306716
0.0345665
0.0384642
0.0423484
0.0462023
0.0500085
0.053749
0.0574055
0.0609591
0.0643906
0.0676804
0.0708087
0.0737557
0.0765016
0.0790266
0.0813113
0.0833364
0.0850836
0.0865349
0.0876732
0.0884826
0.0889482
0.0890562
0.0887947
0.0881529
0.0871218
0.0856944
0.083865
0.0816303
0.0789884
0.0759397
0.0724863
0.0686322
0.0643802
0.0597351
0.0547417
0.0494398
0.0433332
0.0360093
0.0191559
0.0116879
0.00554481
0.000293953
-0.00459002
-0.00908032
-0.0131453
-0.0167944
-0.0200387
-0.0228873
-0.0253502
-0.0274378
-0.0291612
-0.0305317
-0.0315608
-0.0322599
-0.0326407
-0.0327145
-0.0324927
-0.0319865
-0.0312068
-0.0301645
-0.0288703
-0.0273345
-0.0255676
-0.0235795
-0.0213806
-0.0189807
-0.0163899
-0.0136182
-0.0106759
-0.00757314
-0.00432054
-0.000928868
0.00259077
0.00622689
0.00996762
0.0138006
0.0177129
0.0216913
0.0257216
0.0297892
0.033879
0.0379751
0.0420607
0.0461188
0.0501315
0.0540803
0.0579461
0.0617094
0.0653502
0.068848
0.0721821
0.0753316
0.0782755
0.0809928
0.0834626
0.0856646
0.0875787
0.0891855
0.0904667
0.0914045
0.0919826
0.092186
0.092001
0.0914158
0.0904199
0.0890052
0.0871652
0.0848955
0.0821938
0.0790598
0.0754955
0.0715047
0.0670903
0.0622572
0.0570524
0.0515178
0.0451341
0.0374697
0.0161029
0.00835
0.00197787
-0.0034625
-0.0085168
-0.0131573
-0.0173512
-0.0211086
-0.0244414
-0.0273594
-0.0298732
-0.0319944
-0.0337348
-0.0351068
-0.0361226
-0.0367946
-0.0371355
-0.0371573
-0.0368724
-0.0362927
-0.0354298
-0.0342954
-0.0329006
-0.0312564
-0.0293737
-0.0272631
-0.024935
-0.0223997
-0.0196676
-0.016749
-0.0136543
-0.0103938
-0.00697822
-0.0034185
0.000274204
0.00408834
0.00801195
0.0120326
0.0161374
0.0203127
0.0245446
0.0288181
0.0331179
0.0374277
0.0417307
0.0460093
0.0502452
0.0544192
0.0585118
0.0625027
0.0663711
0.0700955
0.0736542
0.0770252
0.0801862
0.083115
0.0857894
0.0881874
0.0902875
0.0920687
0.093511
0.094595
0.0953029
0.0956179
0.0955248
0.0950103
0.0940627
0.0926724
0.0908319
0.0885359
0.0857812
0.082567
0.0788951
0.074769
0.0701915
0.0651678
0.0597471
0.0539735
0.0473034
0.0392856
0.0125997
0.00455592
-0.00204924
-0.00768148
-0.0129074
-0.0176981
-0.0220199
-0.0258836
-0.0293016
-0.0322848
-0.0348445
-0.0369933
-0.038744
-0.0401098
-0.0411041
-0.0417404
-0.042032
-0.0419922
-0.041634
-0.0409703
-0.0400135
-0.0387758
-0.0372692
-0.0355051
-0.0334951
-0.0312501
-0.0287809
-0.0260984
-0.0232129
-0.0201352
-0.0168757
-0.013445
-0.00985391
-0.00611339
-0.00223471
0.00177056
0.0058904
0.0101124
0.0144234
0.01881
0.023258
0.0277522
0.0322773
0.0368167
0.0413532
0.0458688
0.0503449
0.0547618
0.0590992
0.0633362
0.0674509
0.0714212
0.0752242
0.0788367
0.0822352
0.085396
0.0882954
0.09091
0.0932165
0.0951923
0.0968155
0.0980651
0.0989213
0.0993657
0.0993815
0.0989534
0.0980685
0.0967156
0.0948861
0.0925734
0.0897737
0.0864854
0.0827097
0.0784501
0.0737093
0.0684925
0.0628513
0.0568318
0.0498653
0.0414802
0.00862421
0.000282892
-0.00655978
-0.0123865
-0.0177854
-0.0227265
-0.0271751
-0.0311425
-0.0346423
-0.037686
-0.0402859
-0.0424557
-0.0442091
-0.0455605
-0.0465243
-0.0471151
-0.0473474
-0.0472353
-0.0467928
-0.0460337
-0.0449712
-0.0436185
-0.041988
-0.0400919
-0.0379423
-0.0355505
-0.0329279
-0.0300855
-0.0270342
-0.0237848
-0.0203478
-0.0167342
-0.0129547
-0.00902049
-0.00494272
-0.000733044
0.00359652
0.00803351
0.0125649
0.0171771
0.0218557
0.0265859
0.0313516
0.0361365
0.0409229
0.0456926
0.0504263
0.055104
0.0597048
0.0642068
0.0685875
0.0728238
0.0768916
0.0807666
0.0844238
0.0878383
0.0909846
0.0938376
0.0963724
0.0985645
0.10039
0.101826
0.102851
0.103444
0.103587
0.103263
0.102457
0.101156
0.0993504
0.0970321
0.0941964
0.0908408
0.0869661
0.0825754
0.0776712
0.0722588
0.0663922
0.0601198
0.0528462
0.0440788
0.00415288
-0.00449322
-0.0115783
-0.0176025
-0.0231758
-0.0282675
-0.0328415
-0.0369101
-0.0404876
-0.0435865
-0.0462204
-0.0484036
-0.0501514
-0.0514792
-0.0524026
-0.0529374
-0.053099
-0.052903
-0.0523642
-0.0514974
-0.0503167
-0.0488361
-0.0470689
-0.0450279
-0.0427256
-0.0401741
-0.037385
-0.0343698
-0.0311396
-0.0277054
-0.024078
-0.0202684
-0.0162875
-0.0121463
-0.00785616
-0.00342865
0.00112426
0.00579011
0.0105559
0.0154081
0.0203322
0.0253134
0.0303355
0.0353819
0.0404349
0.0454758
0.0504849
0.0554419
0.0603249
0.0651117
0.0697787
0.0743018
0.0786559
0.0828153
0.0867538
0.0904446
0.093861
0.0969758
0.0997623
0.102194
0.104245
0.10589
0.107106
0.10787
0.10816
0.107959
0.107249
0.106017
0.104249
0.101938
0.0990761
0.0956612
0.091693
0.0871742
0.082107
0.0764968
0.0703999
0.063867
0.056275
0.0471093
-0.000838938
-0.00979789
-0.0171308
-0.0233557
-0.0291052
-0.0343474
-0.0390454
-0.043212
-0.0468628
-0.0500112
-0.0526718
-0.0548603
-0.0565931
-0.0578871
-0.0587591
-0.0592261
-0.059305
-0.0590122
-0.0583639
-0.057376
-0.0560636
-0.0544415
-0.0525237
-0.0503239
-0.0478552
-0.0451301
-0.0421609
-0.0389592
-0.0355366
-0.0319042
-0.028073
-0.024054
-0.0198583
-0.0154968
-0.0109808
-0.00632192
-0.00153196
0.00337669
0.00839109
0.0134977
0.0186822
0.0239296
0.0292238
0.034548
0.0398844
0.0452139
0.0505166
0.0557715
0.0609564
0.0660481
0.0710223
0.0758538
0.0805165
0.0849834
0.0892266
0.093218
0.0969288
0.10033
0.103393
0.10609
0.108391
0.11027
0.111701
0.112658
0.113119
0.113061
0.112468
0.111321
0.109608
0.107317
0.104442
0.100977
0.0969215
0.0922784
0.0870492
0.081239
0.0749069
0.0681056
0.0601833
0.0506021
-0.00637749
-0.0156582
-0.0232449
-0.0296741
-0.0356015
-0.0409944
-0.0458146
-0.0500759
-0.0537949