/*--------------------------------*- C++ -*----------------------------------*\
  =========                 |
  \\      /  F ield         | OpenFOAM: The Open Source CFD Toolbox
   \\    /   O peration     | Website:  https://openfoam.org
    \\  /    A nd           | Version:  7
     \\/     M anipulation  |
\*---------------------------------------------------------------------------*/
FoamFile
{
    version     2.0;
    format      ascii;
    class       surfaceScalarField;
    location    "0.2";
    object      phi;
}
// * * * * * * * * * * * * * * * * * * * * * * * * * * * * * * * * * * * * * //

dimensions      [0 3 -1 0 0 0 0];

internalField   nonuniform List<scalar> 
12640
(
1.90383e-10
-1.9046e-10
5.55622e-10
-3.65268e-10
8.82008e-10
-3.26372e-10
1.04411e-09
-1.62117e-10
9.79846e-10
6.42436e-11
6.62213e-10
3.17669e-10
8.43e-11
5.7791e-10
-7.4875e-10
8.33058e-10
-1.82473e-09
1.07599e-09
-3.12721e-09
1.30247e-09
-4.63717e-09
1.50997e-09
-6.33418e-09
1.69701e-09
-8.197e-09
1.86283e-09
-1.02041e-08
2.00714e-09
-1.2334e-08
2.12991e-09
-1.45654e-08
2.23143e-09
-1.68775e-08
2.31209e-09
-1.925e-08
2.37244e-09
-2.1663e-08
2.41307e-09
-2.40977e-08
2.43466e-09
-2.65356e-08
2.43795e-09
-2.89593e-08
2.4237e-09
-3.1352e-08
2.39267e-09
-3.36977e-08
2.34568e-09
-3.59812e-08
2.28354e-09
-3.81883e-08
2.20708e-09
-4.03055e-08
2.11714e-09
-4.232e-08
2.01455e-09
-4.42202e-08
1.90016e-09
-4.5995e-08
1.77478e-09
-4.76343e-08
1.63929e-09
-4.91288e-08
1.49454e-09
-5.04701e-08
1.34137e-09
-5.16508e-08
1.18067e-09
-5.26641e-08
1.01331e-09
-5.35043e-08
8.40178e-10
-5.41665e-08
6.62169e-10
-5.46467e-08
4.80202e-10
-5.49419e-08
2.95213e-10
-5.50501e-08
1.08153e-10
-5.497e-08
-8.0017e-11
-5.47017e-08
-2.68318e-10
-5.4246e-08
-4.55753e-10
-5.36046e-08
-6.41301e-10
-5.27807e-08
-8.23928e-10
-5.17781e-08
-1.00259e-09
-5.06019e-08
-1.17621e-09
-4.92582e-08
-1.34371e-09
-4.77542e-08
-1.504e-09
-4.60982e-08
-1.656e-09
-4.42996e-08
-1.79861e-09
-4.23689e-08
-1.93074e-09
-4.03176e-08
-2.05131e-09
-3.81583e-08
-2.15925e-09
-3.59048e-08
-2.25351e-09
-3.35717e-08
-2.33308e-09
-3.11747e-08
-2.39696e-09
-2.87305e-08
-2.44422e-09
-2.62565e-08
-2.47395e-09
-2.37712e-08
-2.48532e-09
-2.12937e-08
-2.47754e-09
-1.88437e-08
-2.44993e-09
-1.64418e-08
-2.40189e-09
-1.41089e-08
-2.33293e-09
-1.18662e-08
-2.24266e-09
-9.73539e-09
-2.13085e-09
-7.73796e-09
-1.99742e-09
-5.89543e-09
-1.84253e-09
-4.22885e-09
-1.66659e-09
-2.75849e-09
-1.47036e-09
-1.50335e-09
-1.25512e-09
-4.80488e-10
-1.02286e-09
2.96136e-10
-7.76618e-10
8.17305e-10
-5.2116e-10
1.08137e-09
-2.64056e-10
1.09902e-09
-1.76506e-11
9.01285e-10
1.97744e-10
5.53854e-10
3.47446e-10
1.83815e-10
3.70052e-10
1.83828e-10
3.65673e-10
-5.56095e-10
8.8526e-10
-8.84822e-10
1.21453e-09
-6.55631e-10
1.1308e-09
-7.8403e-11
4.96626e-10
6.9843e-10
-7.61732e-10
1.57599e-09
-2.67333e-09
2.48951e-09
-5.23711e-09
3.3968e-09
-8.43155e-09
4.27046e-09
-1.22217e-08
5.09262e-09
-1.65634e-08
5.85169e-09
-2.14068e-08
6.54039e-09
-2.66982e-08
7.15425e-09
-3.2382e-08
7.69089e-09
-3.84014e-08
8.14931e-09
-4.46996e-08
8.52964e-09
-5.12203e-08
8.83272e-09
-5.79078e-08
9.06002e-09
-6.47082e-08
9.21342e-09
-7.15686e-08
9.29513e-09
-7.84383e-08
9.30761e-09
-8.52682e-08
9.25354e-09
-9.20112e-08
9.13572e-09
-9.86226e-08
8.95705e-09
-1.0506e-07
8.72055e-09
-1.11282e-07
8.42925e-09
-1.17251e-07
8.08628e-09
-1.22931e-07
7.6948e-09
-1.28289e-07
7.25799e-09
-1.33293e-07
6.77907e-09
-1.37915e-07
6.2613e-09
-1.42129e-07
5.70795e-09
-1.4591e-07
5.12233e-09
-1.49237e-07
4.5078e-09
-1.52091e-07
3.86774e-09
-1.54457e-07
3.20559e-09
-1.56319e-07
2.52483e-09
-1.57668e-07
1.829e-09
-1.58494e-07
1.1217e-09
-1.58793e-07
4.06585e-10
-1.5856e-07
-3.12622e-10
-1.57797e-07
-1.03213e-09
-1.56504e-07
-1.7481e-09
-1.54689e-07
-2.4566e-09
-1.52359e-07
-3.15367e-09
-1.49526e-07
-3.83528e-09
-1.46205e-07
-4.49736e-09
-1.42413e-07
-5.13581e-09
-1.38171e-07
-5.74648e-09
-1.33501e-07
-6.32524e-09
-1.28432e-07
-6.86794e-09
-1.22992e-07
-7.37047e-09
-1.17215e-07
-7.82873e-09
-1.11136e-07
-8.23871e-09
-1.04793e-07
-8.59651e-09
-9.82273e-08
-8.89832e-09
-9.14838e-08
-9.14048e-09
-8.46084e-08
-9.31952e-09
-7.76502e-08
-9.43216e-09
-7.06601e-08
-9.47539e-09
-6.36912e-08
-9.44648e-09
-5.67981e-08
-9.34301e-09
-5.0037e-08
-9.16297e-09
-4.34651e-08
-8.90481e-09
-3.71403e-08
-8.5675e-09
-3.11205e-08
-8.15063e-09
-2.54633e-08
-7.65457e-09
-2.02252e-08
-7.0806e-09
-1.54606e-08
-6.43121e-09
-1.12205e-08
-5.71047e-09
-7.5511e-09
-4.9245e-09
-4.49159e-09
-4.08239e-09
-2.07083e-09
-3.19738e-09
-3.0308e-10
-2.28891e-09
8.18611e-10
-1.38573e-09
1.33181e-09
-5.30832e-10
1.31841e-09
2.11139e-10
9.22576e-10
7.4329e-10
3.70018e-10
9.22638e-10
5.53846e-10
3.29588e-10
-8.85648e-10
6.641e-10
-1.21943e-09
6.0926e-10
-6.00816e-10
-9.56234e-11
6.26481e-10
-1.62118e-09
2.22397e-09
-4.06644e-09
4.02129e-09
-7.47573e-09
5.89882e-09
-1.1853e-08
7.77405e-09
-1.71728e-08
9.59026e-09
-2.33887e-08
1.13085e-08
-3.04395e-08
1.29025e-08
-3.82537e-08
1.43545e-08
-4.67527e-08
1.56533e-08
-5.58537e-08
1.67919e-08
-6.54713e-08
1.77669e-08
-7.55189e-08
1.85773e-08
-8.59102e-08
1.9224e-08
-9.65595e-08
1.97093e-08
-1.07383e-07
2.00365e-08
-1.18297e-07
2.02099e-08
-1.29224e-07
2.02343e-08
-1.40086e-07
2.01151e-08
-1.50808e-07
1.98581e-08
-1.6132e-07
1.94693e-08
-1.71555e-07
1.8955e-08
-1.81447e-07
1.83218e-08
-1.90937e-07
1.75763e-08
-1.99968e-07
1.67252e-08
-2.08485e-07
1.57755e-08
-2.1644e-07
1.47341e-08
-2.23787e-07
1.3608e-08
-2.30483e-07
1.24044e-08
-2.36492e-07
1.11306e-08
-2.41778e-07
9.79379e-09
-2.46311e-07
8.40144e-09
-2.50067e-07
6.96107e-09
-2.53022e-07
5.4803e-09
-2.5516e-07
3.96689e-09
-2.56467e-07
2.4287e-09
-2.56934e-07
8.73742e-10
-2.56557e-07
-6.89861e-10
-2.55335e-07
-2.25384e-09
-2.53274e-07
-3.80979e-09
-2.50381e-07
-5.34918e-09
-2.46671e-07
-6.86336e-09
-2.42163e-07
-8.34356e-09
-2.36879e-07
-9.78096e-09
-2.30849e-07
-1.11666e-08
-2.24103e-07
-1.24917e-08
-2.16682e-07
-1.37471e-08
-2.08626e-07
-1.49239e-08
-1.99983e-07
-1.60133e-08
-1.90805e-07
-1.70066e-08
-1.81149e-07
-1.7895e-08
-1.71075e-07
-1.86703e-08
-1.60649e-07
-1.93244e-08
-1.4994e-07
-1.98494e-08
-1.39021e-07
-2.02381e-08
-1.2797e-07
-2.04837e-08
-1.16865e-07
-2.05797e-08
-1.05791e-07
-2.05207e-08
-9.48322e-08
-2.03019e-08
-8.40759e-08
-1.99193e-08
-7.36106e-08
-1.93701e-08
-6.35255e-08
-1.86526e-08
-5.39093e-08
-1.77669e-08
-4.48494e-08
-1.67144e-08
-3.64309e-08
-1.54991e-08
-2.87346e-08
-1.41276e-08
-2.18351e-08
-1.26099e-08
-1.57986e-08
-1.0961e-08
-1.06793e-08
-9.20173e-09
-6.51475e-09
-7.36194e-09
-3.32028e-09
-5.48339e-09
-1.08086e-09
-3.62514e-09
2.59284e-10
-1.87096e-09
8.10196e-10
-3.39765e-10
7.51679e-10
8.01813e-10
3.50094e-10
1.32424e-09
9.0393e-10
1.70983e-10
-1.05665e-09
1.02199e-10
-1.15065e-09
-5.92485e-10
9.39108e-11
-2.17671e-09
2.2107e-09
-4.82732e-09
4.87458e-09
-8.6505e-09
7.84444e-09
-1.36955e-08
1.09439e-08
-1.99672e-08
1.40458e-08
-2.74363e-08
1.70593e-08
-3.60475e-08
1.99198e-08
-4.57266e-08
2.25816e-08
-5.63854e-08
2.50133e-08
-6.79256e-08
2.71935e-08
-8.02427e-08
2.91089e-08
-9.32275e-08
3.07517e-08
-1.06769e-07
3.21187e-08
-1.20755e-07
3.32099e-08
-1.35074e-07
3.40282e-08
-1.49615e-07
3.45783e-08
-1.64272e-07
3.48666e-08
-1.78939e-07
3.49008e-08
-1.93513e-07
3.46896e-08
-2.07897e-07
3.42422e-08
-2.21997e-07
3.35688e-08
-2.35722e-07
3.268e-08
-2.48987e-07
3.15866e-08
-2.6171e-07
3.02999e-08
-2.73816e-07
2.88314e-08
-2.85234e-07
2.71929e-08
-2.95896e-07
2.53964e-08
-3.05742e-07
2.34539e-08
-3.14715e-07
2.13777e-08
-3.22765e-07
1.91804e-08
-3.29846e-07
1.68745e-08
-3.35917e-07
1.44729e-08
-3.40945e-07
1.19887e-08
-3.44899e-07
9.43491e-09
-3.47758e-07
6.82508e-09
-3.49502e-07
4.17282e-09
-3.5012e-07
1.49196e-09
-3.49606e-07
-1.20342e-09
-3.47961e-07
-3.89903e-09
-3.45191e-07
-6.58036e-09
-3.41307e-07
-9.2327e-09
-3.36329e-07
-1.18411e-08
-3.30282e-07
-1.43906e-08
-3.23197e-07
-1.68658e-08
-3.15113e-07
-1.92516e-08
-3.06072e-07
-2.15325e-08
-2.96126e-07
-2.36932e-08
-2.85331e-07
-2.57185e-08
-2.73751e-07
-2.75932e-08
-2.61455e-07
-2.93023e-08
-2.48519e-07
-3.08313e-08
-2.35023e-07
-3.21659e-08
-2.21055e-07
-3.32926e-08
-2.06707e-07
-3.41981e-08
-1.92074e-07
-3.48702e-08
-1.77261e-07
-3.52976e-08
-1.6237e-07
-3.54698e-08
-1.47513e-07
-3.53778e-08
-1.32801e-07
-3.50138e-08
-1.18349e-07
-3.43718e-08
-1.04271e-07
-3.34478e-08
-9.06842e-08
-3.22397e-08
-7.77025e-08
-3.07485e-08
-6.54387e-08
-2.89782e-08
-5.40012e-08
-2.69366e-08
-4.34922e-08
-2.46366e-08
-3.40052e-08
-2.20969e-08
-2.56218e-08
-1.93444e-08
-1.84075e-08
-1.6416e-08
-1.2407e-08
-1.33625e-08
-7.63741e-09
-1.0253e-08
-4.08063e-09
-7.18193e-09
-1.67358e-09
-4.27802e-09
-2.96657e-10
-1.7167e-09
2.39068e-10
2.66088e-10
2.06885e-10
1.35644e-09
1.11082e-09
-4.82366e-11
-1.00842e-09
-6.56605e-10
-5.4228e-10
-2.16232e-09
1.59964e-09
-4.80545e-09
4.85382e-09
-8.74989e-09
8.81899e-09
-1.40948e-08
1.31894e-08
-2.0885e-08
1.77341e-08
-2.91208e-08
2.22815e-08
-3.87665e-08
2.6705e-08
-4.97583e-08
3.09116e-08
-6.20105e-08
3.48339e-08
-7.5421e-08
3.84238e-08
-8.98753e-08
4.16479e-08
-1.05251e-07
4.44842e-08
-1.21418e-07
4.69192e-08
-1.38246e-07
4.89462e-08
-1.556e-07
5.05638e-08
-1.73346e-07
5.17746e-08
-1.91352e-07
5.25846e-08
-2.09488e-07
5.30023e-08
-2.27626e-07
5.30384e-08
-2.45641e-07
5.27052e-08
-2.63415e-07
5.20162e-08
-2.80833e-07
5.09862e-08
-2.97783e-07
4.96305e-08
-3.14162e-07
4.79654e-08
-3.2987e-07
4.60077e-08
-3.44813e-07
4.37747e-08
-3.58904e-07
4.1284e-08
-3.72061e-07
3.85536e-08
-3.84209e-07
3.56019e-08
-3.95279e-07
3.24475e-08
-4.05208e-07
2.91093e-08
-4.1394e-07
2.56065e-08
-4.21426e-07
2.19586e-08
-4.27622e-07
1.81855e-08
-4.32495e-07
1.43072e-08
-4.36014e-07
1.03442e-08
-4.38158e-07
6.31707e-09
-4.38913e-07
2.24704e-09
-4.38272e-07
-1.84455e-09
-4.36235e-07
-5.93598e-09
-4.3281e-07
-1.00052e-08
-4.28013e-07
-1.40299e-08
-4.21867e-07
-1.79874e-08
-4.14402e-07
-2.18549e-08
-4.05659e-07
-2.56095e-08
-3.95682e-07
-2.92279e-08
-3.84528e-07
-3.26871e-08
-3.72257e-07
-3.59638e-08
-3.58941e-07
-3.9035e-08
-3.44656e-07
-4.18781e-08
-3.29488e-07
-4.44706e-08
-3.13528e-07
-4.67906e-08
-2.96877e-07
-4.88169e-08
-2.79641e-07
-5.05291e-08
-2.61931e-07
-5.19079e-08
-2.43866e-07
-5.2935e-08
-2.2557e-07
-5.35937e-08
-2.07171e-07
-5.3869e-08
-1.88801e-07
-5.37477e-08
-1.70596e-07
-5.32188e-08
-1.52694e-07
-5.22743e-08
-1.35233e-07
-5.09087e-08
-1.18352e-07
-4.91205e-08
-1.02188e-07
-4.69121e-08
-8.68756e-08
-4.42909e-08
-7.25418e-08
-4.12704e-08
-5.9307e-08
-3.78713e-08
-4.72805e-08
-3.41234e-08
-3.65569e-08
-3.0068e-08
-2.72121e-08
-2.57608e-08
-1.9298e-08
-2.12766e-08
-1.28364e-08
-1.67145e-08
-7.81215e-09
-1.22062e-08
-4.1645e-09
-7.92566e-09
-1.77838e-09
-4.10282e-09
-4.74573e-10
-1.03773e-09
1.2268e-12
8.80646e-10
1.11205e-09
-2.94899e-10
-7.13533e-10
-1.51998e-09
6.82818e-10
-3.94337e-09
4.02304e-09
-7.76383e-09
8.67431e-09
-1.31184e-08
1.41735e-08
-2.00882e-08
2.01592e-08
-2.87055e-08
2.63513e-08
-3.89601e-08
3.25362e-08
-5.0807e-08
3.85519e-08
-6.41723e-08
4.42769e-08
-7.8959e-08
4.96205e-08
-9.5052e-08
5.45168e-08
-1.12323e-07
5.89187e-08
-1.30633e-07
6.2794e-08
-1.49836e-07
6.61223e-08
-1.69782e-07
6.88924e-08
-1.90319e-07
7.11006e-08
-2.11293e-07
7.27488e-08
-2.32552e-07
7.3844e-08
-2.53947e-07
7.43968e-08
-2.75329e-07
7.44207e-08
-2.96556e-07
7.3932e-08
-3.17489e-07
7.29488e-08
-3.37993e-07
7.14909e-08
-3.57942e-07
6.95793e-08
-3.77213e-07
6.72362e-08
-3.9569e-07
6.44847e-08
-4.13264e-07
6.13487e-08
-4.29833e-07
5.78527e-08
-4.45301e-07
5.40216e-08
-4.5958e-07
4.98811e-08
-4.72589e-07
4.54572e-08
-4.84256e-07
4.07763e-08
-4.94515e-07
3.58653e-08
-5.03308e-07
3.07515e-08
-5.10585e-07
2.54627e-08
-5.16305e-07
2.00271e-08
-5.20434e-07
1.44733e-08
-5.22948e-07
8.83042e-09
-5.23829e-07
3.12792e-09
-5.23069e-07
-2.60416e-09
-5.2067e-07
-8.33541e-09
-5.1664e-07
-1.4035e-08
-5.10998e-07
-1.96716e-08
-5.03772e-07
-2.52137e-08
-4.94997e-07
-3.06293e-08
-4.8472e-07
-3.58864e-08
-4.72996e-07
-4.09528e-08
-4.59887e-07
-4.57961e-08
-4.45466e-07
-5.03842e-08
-4.29816e-07
-5.4685e-08
-4.13027e-07
-5.86671e-08
-3.95198e-07
-6.22994e-08
-3.76437e-07
-6.55517e-08
-3.56859e-07
-6.83947e-08
-3.36588e-07
-7.08004e-08
-3.15754e-07
-7.27421e-08
-2.94494e-07
-7.4195e-08
-2.72951e-07
-7.51364e-08
-2.51274e-07
-7.55459e-08
-2.29616e-07
-7.54061e-08
-2.08132e-07
-7.47027e-08
-1.86981e-07
-7.34252e-08
-1.66322e-07
-7.15674e-08
-1.46315e-07
-6.91283e-08
-1.27114e-07
-6.61126e-08
-1.08873e-07
-6.25323e-08
-9.17356e-08
-5.84074e-08
-7.58388e-08
-5.37681e-08
-6.13053e-08
-4.86569e-08
-4.82421e-08
-4.31312e-08
-3.67356e-08
-3.72674e-08
-2.68466e-08
-3.11655e-08
-1.86055e-08
-2.49557e-08
-1.20055e-08
-1.88062e-08
-6.99662e-09
-1.29345e-08
-3.47915e-09
-7.62027e-09
-1.29736e-09
-3.21952e-09
-2.33566e-10
-1.83141e-10
8.78488e-10
-5.50905e-10
-1.626e-10
-2.43041e-09
2.5623e-09
-5.83115e-09
7.42374e-09
-1.09007e-08
1.37439e-08
-1.77398e-08
2.10127e-08
-2.64036e-08
2.8823e-08
-3.69047e-08
3.68523e-08
-4.92177e-08
4.48492e-08
-6.32843e-08
5.26186e-08
-7.90185e-08
6.0011e-08
-9.6311e-08
6.6913e-08
-1.15034e-07
7.324e-08
-1.35046e-07
7.89303e-08
-1.56193e-07
8.39411e-08
-1.78314e-07
8.82438e-08
-2.01244e-07
9.18223e-08
-2.24813e-07
9.46697e-08
-2.48852e-07
9.67872e-08
-2.7319e-07
9.8182e-08
-2.9766e-07
9.88667e-08
-3.22097e-07
9.88581e-08
-3.46341e-07
9.81763e-08
-3.70237e-07
9.68443e-08
-3.93633e-07
9.48874e-08
-4.16387e-07
9.23328e-08
-4.3836e-07
8.92091e-08
-4.59422e-07
8.55466e-08
-4.79449e-07
8.13763e-08
-4.98327e-07
7.67304e-08
-5.15947e-07
7.16418e-08
-5.3221e-07
6.61442e-08
-5.47025e-07
6.02718e-08
-5.60309e-07
5.40598e-08
-5.71987e-07
4.75436e-08
-5.81995e-07
4.07595e-08
-5.90276e-07
3.37441e-08
-5.96784e-07
2.65349e-08
-6.0148e-07
1.91698e-08
-6.04337e-07
1.16873e-08
-6.05336e-07
4.12652e-09
-6.04467e-07
-3.47275e-09
-6.01732e-07
-1.10703e-08
-5.97142e-07
-1.86252e-08
-5.90718e-07
-2.60962e-08
-5.8249e-07
-3.34415e-08
-5.725e-07
-4.0619e-08
-5.608e-07
-4.75864e-08
-5.47452e-07
-5.43012e-08
-5.32527e-07
-6.07208e-08
-5.16108e-07
-6.68028e-08
-4.98288e-07
-7.25053e-08
-4.79168e-07
-7.77869e-08
-4.58861e-07
-8.26068e-08
-4.37487e-07
-8.69255e-08
-4.15177e-07
-9.07047e-08
-3.9207e-07
-9.3908e-08
-3.68311e-07
-9.65007e-08
-3.44055e-07
-9.84507e-08
-3.19463e-07
-9.97287e-08
-2.947e-07
-1.00309e-07
-2.69938e-07
-1.00168e-07
-2.4535e-07
-9.92902e-08
-2.21114e-07
-9.76613e-08
-1.97407e-07
-9.52748e-08
-1.74405e-07
-9.21306e-08
-1.52281e-07
-8.82365e-08
-1.31204e-07
-8.36093e-08
-1.11334e-07
-7.8277e-08
-9.28222e-08
-7.22801e-08
-7.58045e-08
-6.56746e-08
-6.04003e-08
-5.85354e-08
-4.67077e-08
-5.096e-08
-3.4799e-08
-4.30742e-08
-2.47164e-08
-3.50383e-08
-1.6467e-08
-2.70556e-08
-1.00183e-08
-1.93832e-08
-5.29407e-09
-1.23445e-08
-2.17133e-09
-6.34227e-09
-4.7915e-10
-1.87531e-09
3.99335e-10
-8.06474e-10
6.43878e-10
-3.35323e-09
5.10905e-09
-7.75857e-09
1.18291e-08
-1.41148e-08
2.01002e-08
-2.2481e-08
2.93788e-08
-3.28802e-08
3.92222e-08
-4.53004e-08
4.92726e-08
-5.96966e-08
5.92454e-08
-7.5994e-08
6.8916e-08
-9.40918e-08
7.81088e-08
-1.13867e-07
8.66884e-08
-1.35179e-07
9.45519e-08
-1.57872e-07
1.01623e-07
-1.81779e-07
1.07848e-07
-2.06726e-07
1.1319e-07
-2.32531e-07
1.17627e-07
-2.5901e-07
1.21149e-07
-2.85979e-07
1.23756e-07
-3.13251e-07
1.25455e-07
-3.40645e-07
1.2626e-07
-3.6798e-07
1.26193e-07
-3.95079e-07
1.25276e-07
-4.21773e-07
1.23538e-07
-4.47896e-07
1.21011e-07
-4.73291e-07
1.17727e-07
-4.97805e-07
1.13723e-07
-5.21295e-07
1.09036e-07
-5.43625e-07
1.03706e-07
-5.64667e-07
9.77731e-08
-5.84304e-07
9.12784e-08
-6.02425e-07
8.42648e-08
-6.18929e-07
7.67758e-08
-6.33725e-07
6.88558e-08
-6.46731e-07
6.05499e-08
-6.57875e-07
5.1904e-08
-6.67096e-07
4.29649e-08
-6.74341e-07
3.37801e-08
-6.79569e-07
2.43978e-08
-6.82749e-07
1.4867e-08
-6.8386e-07
5.23745e-09
-6.82893e-07
-4.44038e-09
-6.79847e-07
-1.41153e-08
-6.74737e-07
-2.37355e-08
-6.67585e-07
-3.32485e-08
-6.58425e-07
-4.26014e-08
-6.47303e-07
-5.17407e-08
-6.34277e-07
-6.06128e-08
-6.19414e-07
-6.9164e-08
-6.02795e-07
-7.73404e-08
-5.84509e-07
-8.50884e-08
-5.64659e-07
-9.23552e-08
-5.43357e-07
-9.90884e-08
-5.20727e-07
-1.05237e-07
-4.96902e-07
-1.10751e-07
-4.72025e-07
-1.15582e-07
-4.46248e-07
-1.19685e-07
-4.19733e-07
-1.23016e-07
-3.92648e-07
-1.25536e-07
-3.6517e-07
-1.27207e-07
-3.37479e-07
-1.27999e-07
-3.09765e-07
-1.27883e-07
-2.82216e-07
-1.26839e-07
-2.55026e-07
-1.24851e-07
-2.28389e-07
-1.21912e-07
-2.02497e-07
-1.18023e-07
-1.77538e-07
-1.13195e-07
-1.53697e-07
-1.0745e-07
-1.31149e-07
-1.00826e-07
-1.10057e-07
-9.33719e-08
-9.05719e-08
-8.51598e-08
-7.28259e-08
-7.62814e-08
-5.69304e-08
-6.68556e-08
-4.29715e-08
-5.7033e-08
-3.10071e-08
-4.70027e-08
-2.10623e-08
-3.70004e-08
-1.31274e-08
-2.73182e-08
-7.15516e-09
-1.83167e-08
-3.06108e-09
-1.04364e-08
-7.25316e-10
-4.21107e-09
-3.25987e-10
-1.05651e-09
1.70038e-09
-4.26825e-09
8.32079e-09
-9.68396e-09
1.72448e-08
-1.73404e-08
2.77566e-08
-2.72521e-08
3.92905e-08
-3.94068e-08
5.13769e-08
-5.37641e-08
6.36299e-08
-7.02557e-08
7.5737e-08
-8.87874e-08
8.74477e-08
-1.09241e-07
9.85628e-08
-1.3148e-07
1.08927e-07
-1.55347e-07
1.18419e-07
-1.80673e-07
1.2695e-07
-2.07279e-07
1.34454e-07
-2.34975e-07
1.40887e-07
-2.63568e-07
1.4622e-07
-2.92859e-07
1.5044e-07
-3.22648e-07
1.53545e-07
-3.52738e-07
1.55544e-07
-3.8293e-07
1.56453e-07
-4.13031e-07
1.56294e-07
-4.42851e-07
1.55096e-07
-4.72206e-07
1.52893e-07
-5.00917e-07
1.49722e-07
-5.28814e-07
1.45624e-07
-5.55733e-07
1.40642e-07
-5.81517e-07
1.34821e-07
-6.06022e-07
1.2821e-07
-6.29107e-07
1.20858e-07
-6.50644e-07
1.12816e-07
-6.70515e-07
1.04136e-07
-6.8861e-07
9.48709e-08
-7.0483e-07
8.50759e-08
-7.19087e-07
7.48064e-08
-7.31302e-07
6.41188e-08
-7.41408e-07
5.30709e-08
-7.49348e-07
4.17209e-08
-7.55079e-07
3.01284e-08
-7.58566e-07
1.83536e-08
-7.59786e-07
6.45792e-09
-7.5873e-07
-5.49659e-09
-7.55398e-07
-1.74469e-08
-7.49804e-07
-2.93293e-08
-7.41974e-07
-4.10792e-08
-7.31944e-07
-5.26315e-08
-7.19763e-07
-6.39208e-08
-7.05495e-07
-7.48809e-08
-6.89213e-07
-8.5446e-08
-6.71004e-07
-9.55501e-08
-6.50964e-07
-1.05128e-07
-6.29206e-07
-1.14114e-07
-6.0585e-07
-1.22444e-07
-5.8103e-07
-1.30057e-07
-5.54891e-07
-1.3689e-07
-5.27586e-07
-1.42887e-07
-4.9928e-07
-1.4799e-07
-4.70148e-07
-1.52148e-07
-4.40372e-07
-1.55312e-07
-4.10142e-07
-1.57438e-07
-3.79654e-07
-1.58487e-07
-3.49109e-07
-1.58428e-07
-3.18714e-07
-1.57234e-07
-2.88676e-07
-1.54889e-07
-2.59203e-07
-1.51385e-07
-2.30503e-07
-1.46723e-07
-2.02779e-07
-1.40919e-07
-1.76229e-07
-1.34e-07
-1.51042e-07
-1.26012e-07
-1.27397e-07
-1.17017e-07
-1.05458e-07
-1.07099e-07
-8.53707e-08
-9.63684e-08
-6.72624e-08
-8.49639e-08
-5.12355e-08
-7.30599e-08
-3.7366e-08
-6.08722e-08
-2.57011e-08
-4.86653e-08
-1.62571e-08
-3.67621e-08
-9.0199e-09
-2.5554e-08
-3.94581e-09
-1.55105e-08
-9.66726e-10
-7.19016e-09
-1.29271e-09
-1.29863e-09
2.999e-09
-5.16436e-09
1.21865e-08
-1.15826e-08
2.3663e-08
-2.05362e-08
3.67102e-08
-3.19949e-08
5.07493e-08
-4.59093e-08
6.52913e-08
-6.22079e-08
7.99286e-08
-8.07968e-08
9.43258e-08
-1.0156e-07
1.0821e-07
-1.2436e-07
1.21363e-07
-1.49042e-07
1.33609e-07
-1.75435e-07
1.44813e-07
-2.03357e-07
1.54871e-07
-2.32611e-07
1.63709e-07
-2.62997e-07
1.71272e-07
-2.94307e-07
1.77529e-07
-3.26328e-07
1.82462e-07
-3.5885e-07
1.86067e-07
-3.9166e-07
1.88354e-07
-4.24548e-07
1.8934e-07
-4.57307e-07
1.89053e-07
-4.89736e-07
1.87525e-07
-5.21637e-07
1.84794e-07
-5.52821e-07
1.80906e-07
-5.83105e-07
1.75908e-07
-6.12314e-07
1.69851e-07
-6.40282e-07
1.62789e-07
-6.66852e-07
1.5478e-07
-6.91877e-07
1.45883e-07
-7.15218e-07
1.36157e-07
-7.36748e-07
1.25666e-07
-7.56351e-07
1.14474e-07
-7.73921e-07
1.02646e-07
-7.89362e-07
9.02477e-08
-8.02592e-07
7.73485e-08
-8.13538e-07
6.40167e-08
-8.2214e-07
5.03229e-08
-8.2835e-07
3.63382e-08
-8.32131e-07
2.21352e-08
-8.33461e-07
7.78742e-09
-8.32327e-07
-6.63043e-09
-8.28731e-07
-2.10428e-08
-8.22687e-07
-3.5373e-08
-8.14223e-07
-4.95438e-08
-8.03377e-07
-6.34772e-08
-7.90203e-07
-7.70944e-08
-7.74768e-07
-9.03165e-08
-7.57149e-07
-1.03064e-07
-7.3744e-07
-1.15259e-07
-7.15745e-07
-1.26823e-07
-6.92182e-07
-1.37677e-07
-6.66881e-07
-1.47745e-07
-6.39984e-07
-1.56954e-07
-6.11646e-07
-1.65229e-07
-5.8203e-07
-1.72502e-07
-5.51313e-07
-1.78707e-07
-5.19681e-07
-1.8378e-07
-4.87327e-07
-1.87665e-07
-4.54456e-07
-1.9031e-07
-4.21274e-07
-1.91668e-07
-3.87999e-07
-1.91703e-07
-3.54849e-07
-1.90385e-07
-3.22045e-07
-1.87693e-07
-2.8981e-07
-1.83619e-07
-2.58366e-07
-1.78168e-07
-2.27929e-07
-1.71356e-07
-1.98712e-07
-1.63217e-07
-1.70918e-07
-1.53806e-07
-1.4474e-07
-1.43195e-07
-1.20358e-07
-1.31482e-07
-9.79322e-08
-1.18794e-07
-7.76073e-08
-1.05289e-07
-5.9504e-08
-9.11633e-08
-4.37194e-08
-7.66568e-08
-3.03249e-08
-6.20598e-08
-1.93661e-08
-4.77209e-08
-1.0863e-08
-3.4057e-08
-4.81403e-09
-2.15595e-08
-1.20083e-09
-1.08034e-08
-2.49353e-09
-1.53196e-09
4.53097e-09
-6.03611e-09
1.66907e-08
-1.34408e-08
3.10676e-08
-2.36782e-08
4.69477e-08
-3.6674e-08
6.3745e-08
-5.23407e-08
8.09581e-08
-7.05749e-08
9.81627e-08
-9.12546e-08
1.15006e-07
-1.1424e-07
1.31196e-07
-1.39373e-07
1.46496e-07
-1.66481e-07
1.60717e-07
-1.95377e-07
1.73708e-07
-2.2586e-07
1.85355e-07
-2.57723e-07
1.95572e-07
-2.90749e-07
2.04299e-07
-3.24718e-07
2.11498e-07
-3.59406e-07
2.1715e-07
-3.94588e-07
2.21249e-07
-4.3004e-07
2.23806e-07
-4.6554e-07
2.2484e-07
-5.00869e-07
2.24382e-07
-5.35814e-07
2.22469e-07
-5.70167e-07
2.19147e-07
-6.03727e-07
2.14466e-07
-6.36302e-07
2.08482e-07
-6.67706e-07
2.01255e-07
-6.97764e-07
1.92847e-07
-7.26309e-07
1.83326e-07
-7.53186e-07
1.7276e-07
-7.78249e-07
1.6122e-07
-8.01363e-07
1.4878e-07
-8.22404e-07
1.35516e-07
-8.41261e-07
1.21503e-07
-8.57833e-07
1.0682e-07
-8.72032e-07
9.1547e-08
-8.83781e-07
7.57657e-08
-8.93017e-07
5.95584e-08
-8.99688e-07
4.30092e-08
-9.03756e-07
2.62035e-08
-9.05196e-07
9.22767e-09
-9.03996e-07
-7.83029e-09
-9.00158e-07
-2.48814e-08
-8.93695e-07
-4.18358e-08
-8.84637e-07
-5.86022e-08
-8.73025e-07
-7.50891e-08
-8.58915e-07
-9.1204e-08
-8.42377e-07
-1.06854e-07
-8.23495e-07
-1.21947e-07
-8.02365e-07
-1.36389e-07
-7.79099e-07
-1.50089e-07
-7.53821e-07
-1.62955e-07
-7.26667e-07
-1.74899e-07
-6.97789e-07
-1.85832e-07
-6.67348e-07
-1.9567e-07
-6.3552e-07
-2.04331e-07
-6.02489e-07
-2.11738e-07
-5.68452e-07
-2.17817e-07
-5.33615e-07
-2.22503e-07
-4.98191e-07
-2.25734e-07
-4.62401e-07
-2.27458e-07
-4.26474e-07
-2.2763e-07
-3.90641e-07
-2.26218e-07
-3.55137e-07
-2.23197e-07
-3.20197e-07
-2.18559e-07
-2.86056e-07
-2.12308e-07
-2.52946e-07
-2.04465e-07
-2.21093e-07
-1.9507e-07
-1.90715e-07
-1.84184e-07
-1.62021e-07
-1.71889e-07
-1.35204e-07
-1.58299e-07
-1.10444e-07
-1.43554e-07
-8.79029e-08
-1.2783e-07
-6.7722e-08
-1.11344e-07
-5.00214e-08
-9.43574e-08
-3.48989e-08
-7.71823e-08
-2.24302e-08
-6.01896e-08
-1.26709e-08
-4.38162e-08
-5.66016e-09
-2.85703e-08
-1.42667e-09
-1.50369e-08
-3.92019e-09
-1.75652e-09
6.28752e-09
-6.88158e-09
2.18157e-08
-1.52524e-08
3.94385e-08
-2.6754e-08
5.84493e-08
-4.12695e-08
7.82605e-08
-5.8674e-08
9.83626e-08
-7.88308e-08
1.1832e-07
-1.01589e-07
1.37764e-07
-1.26785e-07
1.56391e-07
-1.54237e-07
1.73948e-07
-1.83752e-07
1.90233e-07
-2.15127e-07
2.05082e-07
-2.48145e-07
2.18372e-07
-2.82582e-07
2.30009e-07
-3.18209e-07
2.39926e-07
-3.54792e-07
2.48081e-07
-3.92094e-07
2.54451e-07
-4.29878e-07
2.59033e-07
-4.67908e-07
2.61836e-07
-5.05951e-07
2.62883e-07
-5.43777e-07
2.62208e-07
-5.81162e-07
2.59855e-07
-6.17889e-07
2.55874e-07
-6.53747e-07
2.50324e-07
-6.88532e-07
2.43268e-07
-7.22052e-07
2.34775e-07
-7.54121e-07
2.24917e-07
-7.84567e-07
2.13771e-07
-8.13224e-07
2.01417e-07
-8.3994e-07
1.87937e-07
-8.64575e-07
1.73415e-07
-8.86997e-07
1.57938e-07
-9.0709e-07
1.41595e-07
-9.24748e-07
1.24478e-07
-9.39878e-07
1.06677e-07
-9.52401e-07
8.82882e-08
-9.62248e-07
6.94061e-08
-9.69367e-07
5.01284e-08
-9.73718e-07
3.05537e-08
-9.75273e-07
1.07824e-08
-9.74019e-07
-9.08392e-09
-9.69958e-07
-2.89423e-08
-9.63105e-07
-4.86887e-08
-9.5349e-07
-6.82177e-08
-9.41155e-07
-8.74233e-08
-9.26161e-07
-1.06199e-07
-9.08579e-07
-1.24436e-07
-8.88496e-07
-1.42029e-07
-8.66015e-07
-1.5887e-07
-8.4125e-07
-1.74853e-07
-8.14333e-07
-1.89873e-07
-7.85406e-07
-2.03826e-07
-7.54627e-07
-2.16611e-07
-7.22167e-07
-2.2813e-07
-6.88207e-07
-2.3829e-07
-6.52943e-07
-2.47001e-07
-6.16581e-07
-2.5418e-07
-5.79335e-07
-2.59749e-07
-5.4143e-07
-2.63638e-07
-5.031e-07
-2.65788e-07
-4.64583e-07
-2.66147e-07
-4.26124e-07
-2.64677e-07
-3.87968e-07
-2.61352e-07
-3.50366e-07
-2.56161e-07
-3.13566e-07
-2.49109e-07
-2.77812e-07
-2.40219e-07
-2.43346e-07
-2.29536e-07
-2.10401e-07
-2.17129e-07
-1.79201e-07
-2.0309e-07
-1.49957e-07
-1.87543e-07
-1.22868e-07
-1.70643e-07
-9.81137e-08
-1.52584e-07
-7.58587e-08
-1.33599e-07
-5.62473e-08
-1.13969e-07
-3.94048e-08
-9.40248e-08
-2.5438e-08
-7.41564e-08
-1.44377e-08
-5.48166e-08
-6.48233e-09
-3.65256e-08
-1.64427e-09
-1.98749e-08
-5.56447e-09
-1.97281e-09
8.26033e-09
-7.70102e-09
2.75439e-08
-1.70161e-08
4.87535e-08
-2.97593e-08
7.11925e-08
-4.57732e-08
9.42744e-08
-6.48961e-08
1.17485e-07
-8.69583e-08
1.40382e-07
-1.1178e-07
1.62586e-07
-1.3917e-07
1.83781e-07
-1.68925e-07
2.03703e-07
-2.00831e-07
2.22139e-07
-2.34664e-07
2.38916e-07
-2.70192e-07
2.539e-07
-3.07176e-07
2.66993e-07
-3.45371e-07
2.78121e-07
-3.8453e-07
2.8724e-07
-4.24403e-07
2.94325e-07
-4.64742e-07
2.99372e-07
-5.05298e-07
3.02393e-07
-5.45829e-07
3.03414e-07
-5.86093e-07
3.02473e-07
-6.25858e-07
2.99619e-07
-6.64894e-07
2.94911e-07
-7.02983e-07
2.88413e-07
-7.39914e-07
2.80198e-07
-7.75483e-07
2.70344e-07
-8.095e-07
2.58934e-07
-8.41783e-07
2.46054e-07
-8.72161e-07
2.31795e-07
-9.00475e-07
2.1625e-07
-9.26577e-07
1.99517e-07
-9.50333e-07
1.81694e-07
-9.71619e-07
1.62882e-07
-9.90327e-07
1.43185e-07
-1.00636e-06
1.22709e-07
-1.01963e-06
1.01561e-07
-1.03007e-06
7.98496e-08
-1.03763e-06
5.76865e-08
-1.04226e-06
3.51843e-08
-1.04394e-06
1.24574e-08
-1.04264e-06
-1.03783e-08
-1.03838e-06
-3.32053e-08
-1.03117e-06
-5.59046e-08
-1.02103e-06
-7.83564e-08
-1.00801e-06
-1.00439e-07
-9.92177e-07
-1.22032e-07
-9.73602e-07
-1.43012e-07
-9.52375e-07
-1.63256e-07
-9.28601e-07
-1.82644e-07
-9.02402e-07
-2.01052e-07
-8.73912e-07
-2.18363e-07
-8.4328e-07
-2.34458e-07
-8.10669e-07
-2.49221e-07
-7.76258e-07
-2.62542e-07
-7.40236e-07
-2.74312e-07
-7.02805e-07
-2.84432e-07
-6.64181e-07
-2.92804e-07
-6.24588e-07
-2.99341e-07
-5.84261e-07
-3.03965e-07
-5.43444e-07
-3.06606e-07
-5.02385e-07
-3.07206e-07
-4.61341e-07
-3.05721e-07
-4.20573e-07
-3.02121e-07
-3.8034e-07
-2.96394e-07
-3.40906e-07
-2.88543e-07
-3.02529e-07
-2.78596e-07
-2.65465e-07
-2.666e-07
-2.29964e-07
-2.5263e-07
-1.96267e-07
-2.36788e-07
-1.64602e-07
-2.19207e-07
-1.35187e-07
-2.00058e-07
-1.08224e-07
-1.79546e-07
-8.39012e-08
-1.57922e-07
-6.23873e-08
-1.35483e-07
-4.38363e-08
-1.12576e-07
-2.83864e-08
-8.96063e-08
-1.61627e-08
-6.70403e-08
-7.28109e-09
-4.54072e-08
-1.85419e-09
-2.53018e-08
-7.41866e-09
-2.18156e-09
1.04419e-08
-8.49598e-09
3.38584e-08
-1.87335e-08
5.8991e-08
-3.26949e-08
8.51539e-08
-5.01843e-08
1.11764e-07
-7.10043e-08
1.38305e-07
-9.49526e-08
1.6433e-07
-1.2182e-07
1.89453e-07
-1.51387e-07
2.13348e-07
-1.83429e-07
2.35744e-07
-2.17708e-07
2.56418e-07
-2.53981e-07
2.75189e-07
-2.91999e-07
2.91918e-07
-3.31506e-07
3.06499e-07
-3.72242e-07
3.18857e-07
-4.13946e-07
3.28944e-07
-4.56356e-07
3.36735e-07
-4.99211e-07
3.42227e-07
-5.42253e-07
3.45434e-07
-5.85226e-07
3.46387e-07
-6.2788e-07
3.45127e-07
-6.69973e-07
3.41712e-07
-7.11267e-07
3.36205e-07
-7.51534e-07
3.2868e-07
-7.90555e-07
3.19219e-07
-8.28121e-07
3.0791e-07
-8.64032e-07
2.94845e-07
-8.98101e-07
2.80122e-07
-9.30149e-07
2.63844e-07
-9.60014e-07
2.46115e-07
-9.87541e-07
2.27044e-07
-1.01259e-06
2.06744e-07
-1.03504e-06
1.85328e-07
-1.05477e-06
1.62914e-07
-1.07168e-06
1.39619e-07
-1.08568e-06
1.15566e-07
-1.09671e-06
9.08773e-08
-1.1047e-06
6.56783e-08
-1.10961e-06
4.00962e-08
-1.11141e-06
1.42599e-08
-1.11009e-06
-1.16997e-08
-1.10565e-06
-3.76502e-08
-1.0981e-06
-6.34576e-08
-1.08746e-06
-8.89866e-08
-1.0738e-06
-1.14101e-07
-1.05717e-06
-1.38662e-07
-1.03765e-06
-1.62534e-07
-1.01533e-06
-1.85578e-07
-9.90318e-07
-2.07656e-07
-9.62739e-07
-2.28631e-07
-9.32733e-07
-2.48369e-07
-9.00454e-07
-2.66737e-07
-8.66071e-07
-2.83604e-07
-8.29767e-07
-2.98846e-07
-7.91739e-07
-3.1234e-07
-7.52197e-07
-3.23973e-07
-7.11364e-07
-3.33637e-07
-6.69474e-07
-3.41232e-07
-6.2677e-07
-3.46669e-07
-5.83506e-07
-3.4987e-07
-5.39943e-07
-3.50769e-07
-4.96348e-07
-3.49316e-07
-4.52993e-07
-3.45477e-07
-4.10152e-07
-3.39235e-07
-3.68101e-07
-3.30594e-07
-3.27114e-07
-3.19583e-07
-2.87462e-07
-3.06251e-07
-2.49412e-07
-2.9068e-07
-2.13221e-07
-2.72979e-07
-1.79138e-07
-2.5329e-07
-1.47401e-07
-2.31795e-07
-1.18235e-07
-2.08713e-07
-9.18495e-08
-1.84307e-07
-6.84424e-08
-1.5889e-07
-4.81955e-08
-1.32823e-07
-3.1278e-08
-1.06524e-07
-1.78485e-08
-8.04698e-08
-8.05845e-09
-5.51973e-08
-2.05728e-09
-3.1303e-08
-9.47595e-09
-2.38366e-09
1.28255e-08
-9.26885e-09
4.07436e-08
-2.04083e-08
7.01305e-08
-3.55652e-08
1.00311e-07
-5.45073e-08
1.30706e-07
-7.70028e-08
1.60801e-07
-1.02817e-07
1.90144e-07
-1.31711e-07
2.18347e-07
-1.6344e-07
2.45077e-07
-1.97751e-07
2.70056e-07
-2.34387e-07
2.93054e-07
-2.73085e-07
3.13886e-07
-3.13574e-07
3.32408e-07
-3.55584e-07
3.48509e-07
-3.98838e-07
3.62112e-07
-4.43063e-07
3.73168e-07
-4.87982e-07
3.81654e-07
-5.33323e-07
3.87568e-07
-5.78815e-07
3.90927e-07
-6.24194e-07
3.91765e-07
-6.69199e-07
3.90133e-07
-7.13578e-07
3.86091e-07
-7.57087e-07
3.79713e-07
-7.99488e-07
3.71081e-07
-8.40555e-07
3.60287e-07
-8.80073e-07
3.47427e-07
-9.17834e-07
3.32606e-07
-9.53645e-07
3.15934e-07
-9.87325e-07
2.97523e-07
-1.0187e-06
2.77491e-07
-1.04762e-06
2.55961e-07
-1.07393e-06
2.33057e-07
-1.09751e-06
2.08906e-07
-1.11824e-06
1.83639e-07
-1.136e-06
1.57389e-07
-1.15073e-06
1.30291e-07
-1.16233e-06
1.02481e-07
-1.17076e-06
7.41016e-08
-1.17595e-06
4.52929e-08
-1.17789e-06
1.61992e-08
-1.17656e-06
-1.30334e-08
-1.17195e-06
-4.22571e-08
-1.16409e-06
-7.13224e-08
-1.153e-06
-1.00078e-07
-1.13872e-06
-1.28372e-07
-1.12134e-06
-1.56051e-07
-1.10091e-06
-1.82961e-07
-1.07754e-06
-2.08948e-07
-1.05133e-06
-2.33858e-07