/*--------------------------------*- C++ -*----------------------------------*\
  =========                 |
  \\      /  F ield         | OpenFOAM: The Open Source CFD Toolbox
   \\    /   O peration     | Website:  https://openfoam.org
    \\  /    A nd           | Version:  7
     \\/     M anipulation  |
\*---------------------------------------------------------------------------*/
FoamFile
{
    version     2.0;
    format      ascii;
    class       volVectorField;
    location    "0.2";
    object      U;
}
// * * * * * * * * * * * * * * * * * * * * * * * * * * * * * * * * * * * * * //

dimensions      [0 1 -1 0 0 0 0];

internalField   nonuniform List<vector> 
6400
(
(7.25228e-06 -7.23952e-06 0)
(2.97748e-05 -1.44173e-05 0)
(5.92142e-05 -1.41466e-05 0)
(8.04515e-05 -9.7044e-06 0)
(8.52271e-05 -3.39818e-06 0)
(7.02963e-05 3.56856e-06 0)
(3.45388e-05 1.05826e-05 0)
(-2.20128e-05 1.73274e-05 0)
(-9.86034e-05 2.36396e-05 0)
(-0.000194043 2.94386e-05 0)
(-0.000306886 3.46859e-05 0)
(-0.00043554 3.93665e-05 0)
(-0.000578324 4.34796e-05 0)
(-0.000733518 4.70316e-05 0)
(-0.000899398 5.00334e-05 0)
(-0.00107425 5.25012e-05 0)
(-0.00125638 5.44518e-05 0)
(-0.00144414 5.5904e-05 0)
(-0.00163593 5.68773e-05 0)
(-0.00183019 5.73915e-05 0)
(-0.00202544 5.74672e-05 0)
(-0.00222023 5.7125e-05 0)
(-0.0024132 5.63854e-05 0)
(-0.00260304 5.52688e-05 0)
(-0.00278849 5.37958e-05 0)
(-0.00296838 5.19865e-05 0)
(-0.00314161 4.98615e-05 0)
(-0.00330711 4.74407e-05 0)
(-0.00346392 4.47444e-05 0)
(-0.00361112 4.17921e-05 0)
(-0.00374787 3.86039e-05 0)
(-0.0038734 3.51999e-05 0)
(-0.00398699 3.15997e-05 0)
(-0.004088 2.78235e-05 0)
(-0.00417588 2.38914e-05 0)
(-0.00425013 1.98238e-05 0)
(-0.0043103 1.56415e-05 0)
(-0.00435607 1.13657e-05 0)
(-0.00438713 7.01806e-06 0)
(-0.0044033 2.62034e-06 0)
(-0.00440443 -1.80537e-06 0)
(-0.00439049 -6.23642e-06 0)
(-0.0043615 -1.06495e-05 0)
(-0.00431757 -1.50209e-05 0)
(-0.00425889 -1.93264e-05 0)
(-0.00418575 -2.35415e-05 0)
(-0.00409848 -2.76412e-05 0)
(-0.00399756 -3.15998e-05 0)
(-0.0038835 -3.53917e-05 0)
(-0.00375693 -3.89911e-05 0)
(-0.00361855 -4.23717e-05 0)
(-0.00346917 -4.55071e-05 0)
(-0.00330965 -4.83715e-05 0)
(-0.00314098 -5.09391e-05 0)
(-0.00296419 -5.31844e-05 0)
(-0.00278043 -5.50823e-05 0)
(-0.00259092 -5.66082e-05 0)
(-0.00239695 -5.77386e-05 0)
(-0.00219988 -5.84506e-05 0)
(-0.00200115 -5.87222e-05 0)
(-0.00180226 -5.85332e-05 0)
(-0.00160478 -5.78646e-05 0)
(-0.00141031 -5.66991e-05 0)
(-0.00122052 -5.50214e-05 0)
(-0.00103709 -5.28182e-05 0)
(-0.000861747 -5.00781e-05 0)
(-0.000696216 -4.67929e-05 0)
(-0.000542225 -4.29576e-05 0)
(-0.000401484 -3.85718e-05 0)
(-0.000275653 -3.36416e-05 0)
(-0.000166318 -2.81825e-05 0)
(-7.49369e-05 -2.2224e-05 0)
(-2.77768e-06 -1.58199e-05 0)
(4.9191e-05 -9.06733e-06 0)
(8.04737e-05 -2.14495e-06 0)
(9.13326e-05 4.61369e-06 0)
(8.32094e-05 1.05845e-05 0)
(5.96635e-05 1.45723e-05 0)
(2.91958e-05 1.43342e-05 0)
(6.86705e-06 6.86601e-06 0)
(1.44415e-05 -2.97707e-05 0)
(5.1466e-05 -5.13777e-05 0)
(8.95986e-05 -4.39372e-05 0)
(0.000103178 -1.89568e-05 0)
(7.65126e-05 1.54443e-05 0)
(1.76144e-06 5.42379e-05 0)
(-0.000124767 9.43472e-05 0)
(-0.000303986 0.000133887 0)
(-0.000534845 0.000171701 0)
(-0.000814979 0.000207073 0)
(-0.00114115 0.000239565 0)
(-0.00150955 0.000268917 0)
(-0.001916 0.000294985 0)
(-0.0023561 0.000317702 0)
(-0.00282534 0.000337057 0)
(-0.00331915 0.000353081 0)
(-0.00383299 0.000365827 0)
(-0.00436239 0.000375374 0)
(-0.00490296 0.000381813 0)
(-0.0054504 0.000385247 0)
(-0.00600059 0.000385788 0)
(-0.00654952 0.000383554 0)
(-0.00709334 0.000378667 0)
(-0.00762837 0.000371252 0)
(-0.00815113 0.000361438 0)
(-0.00865827 0.000349353 0)
(-0.00914665 0.000335131 0)
(-0.0096133 0.000318901 0)
(-0.0100555 0.000300798 0)
(-0.0104705 0.000280955 0)
(-0.0108561 0.000259507 0)
(-0.01121 0.000236588 0)
(-0.0115303 0.000212337 0)
(-0.011815 0.00018689 0)
(-0.0120626 0.000160387 0)
(-0.0122717 0.00013297 0)
(-0.0124411 0.00010478 0)
(-0.0125697 7.5965e-05 0)
(-0.0126569 4.66718e-05 0)
(-0.0127019 1.70512e-05 0)
(-0.0127046 -1.27437e-05 0)
(-0.0126647 -4.2557e-05 0)
(-0.0125824 -7.223e-05 0)
(-0.0124579 -0.000101601 0)
(-0.012292 -0.000130506 0)
(-0.0120852 -0.000158778 0)
(-0.0118387 -0.000186249 0)
(-0.0115538 -0.000212747 0)
(-0.011232 -0.000238102 0)
(-0.010875 -0.000262139 0)
(-0.0104849 -0.000284688 0)
(-0.010064 -0.000305575 0)
(-0.0096146 -0.000324629 0)
(-0.00913959 -0.000341681 0)
(-0.00864191 -0.000356568 0)
(-0.00812474 -0.000369129 0)
(-0.0075915 -0.000379208 0)
(-0.00704581 -0.000386657 0)
(-0.00649149 -0.000391336 0)
(-0.00593253 -0.000393114 0)
(-0.00537311 -0.000391871 0)
(-0.00481755 -0.0003875 0)
(-0.00427027 -0.000379909 0)
(-0.00373583 -0.000369023 0)
(-0.00321883 -0.000354787 0)
(-0.00272392 -0.000337169 0)
(-0.00225573 -0.000316167 0)
(-0.00181884 -0.000291813 0)
(-0.00141771 -0.000264184 0)
(-0.00105659 -0.000233419 0)
(-0.000739391 -0.00019974 0)
(-0.00046959 -0.000163485 0)
(-0.000249976 -0.000125171 0)
(-8.23782e-05 -8.55878e-05 0)
(3.27733e-05 -4.59616e-05 0)
(9.70614e-05 -8.22633e-06 0)
(0.00011486 2.4536e-05 0)
(9.46257e-05 4.73795e-05 0)
(5.2512e-05 5.24716e-05 0)
(1.43271e-05 2.91717e-05 0)
(1.4263e-05 -5.93084e-05 0)
(4.44373e-05 -8.96432e-05 0)
(6.09822e-05 -6.01586e-05 0)
(3.51395e-05 7.04116e-06 0)
(-5.14267e-05 9.65458e-05 0)
(-0.000208916 0.000197707 0)
(-0.000442652 0.000303299 0)
(-0.000754333 0.000408495 0)
(-0.00114292 0.000510078 0)
(-0.00160541 0.000605902 0)
(-0.00213739 0.000694558 0)
(-0.00273346 0.000775131 0)
(-0.00338757 0.000847052 0)
(-0.00409323 0.000910001 0)
(-0.00484367 0.000963831 0)
(-0.00563198 0.00100853 0)
(-0.00645124 0.00104417 0)
(-0.00729454 0.00107092 0)
(-0.00815508 0.00108898 0)
(-0.00902619 0.0010986 0)
(-0.0099014 0.00110006 0)
(-0.0107744 0.00109367 0)
(-0.0116392 0.00107975 0)
(-0.01249 0.00105865 0)
(-0.0133212 0.00103072 0)
(-0.0141275 0.000996302 0)
(-0.0149039 0.000955778 0)
(-0.0156459 0.000909515 0)
(-0.0163488 0.000857888 0)
(-0.0170086 0.000801278 0)
(-0.0176216 0.00074007 0)
(-0.0181841 0.000674652 0)
(-0.018693 0.000605415 0)
(-0.0191454 0.000532757 0)
(-0.0195387 0.000457079 0)
(-0.0198708 0.000378788 0)
(-0.0201396 0.000298299 0)
(-0.0203437 0.00021603 0)
(-0.0204817 0.000132408 0)
(-0.0205528 4.78662e-05 0)
(-0.0205564 -3.71541e-05 0)
(-0.0204924 -0.000122205 0)
(-0.0203609 -0.000206829 0)
(-0.0201625 -0.000290565 0)
(-0.0198981 -0.000372942 0)
(-0.019569 -0.000453482 0)
(-0.0191768 -0.000531706 0)
(-0.0187236 -0.000607128 0)
(-0.0182119 -0.00067926 0)
(-0.0176444 -0.000747613 0)
(-0.0170244 -0.000811699 0)
(-0.0163555 -0.000871031 0)
(-0.0156416 -0.000925129 0)
(-0.014887 -0.000973523 0)
(-0.0140966 -0.00101575 0)
(-0.0132753 -0.00105136 0)
(-0.0124284 -0.00107994 0)
(-0.0115619 -0.00110107 0)
(-0.0106815 -0.00111436 0)
(-0.00979365 -0.00111948 0)
(-0.00890484 -0.0011161 0)
(-0.00802181 -0.00110394 0)
(-0.00715146 -0.00108279 0)
(-0.00630085 -0.00105246 0)
(-0.00547708 -0.00101284 0)
(-0.00468728 -0.000963912 0)
(-0.00393854 -0.000905725 0)
(-0.00323778 -0.000838458 0)
(-0.00259165 -0.000762433 0)
(-0.00200644 -0.000678161 0)
(-0.00148782 -0.000586406 0)
(-0.00104068 -0.00048828 0)
(-0.000668802 -0.000385388 0)
(-0.000374429 -0.000280046 0)
(-0.000157741 -0.000175614 0)
(-1.6121e-05 -7.70027e-05 0)
(5.66664e-05 8.59717e-06 0)
(7.16306e-05 7.07676e-05 0)
(4.78361e-05 9.46929e-05 0)
(1.46458e-05 5.96939e-05 0)
(1.00219e-05 -8.10076e-05 0)
(2.02666e-05 -0.000103985 0)
(-4.58519e-06 -3.46752e-05 0)
(-9.12526e-05 9.41594e-05 0)
(-0.000257857 0.000259778 0)
(-0.000515323 0.000445644 0)
(-0.000869548 0.00063991 0)
(-0.00132248 0.000834227 0)
(-0.00187296 0.00102275 0)
(-0.00251746 0.00120142 0)
(-0.00325069 0.0013674 0)
(-0.00406605 0.00151881 0)
(-0.00495602 0.00165439 0)
(-0.00591243 0.00177336 0)
(-0.00692669 0.00187532 0)
(-0.00798995 0.00196012 0)
(-0.00909325 0.00202781 0)
(-0.0102276 0.00207861 0)
(-0.0113842 0.00211284 0)
(-0.0125543 0.00213093 0)
(-0.0137293 0.00213337 0)
(-0.0149009 0.00212072 0)
(-0.0160612 0.00209357 0)
(-0.0172023 0.00205254 0)
(-0.0183171 0.00199831 0)
(-0.0193983 0.00193154 0)
(-0.0204394 0.00185293 0)
(-0.0214341 0.00176319 0)
(-0.0223764 0.00166306 0)
(-0.0232608 0.00155325 0)
(-0.0240823 0.00143451 0)
(-0.0248362 0.0013076 0)
(-0.0255181 0.00117327 0)
(-0.0261241 0.00103231 0)
(-0.026651 0.00088549 0)
(-0.0270956 0.000733607 0)
(-0.0274554 0.000577469 0)
(-0.0277283 0.000417892 0)
(-0.0279127 0.00025571 0)
(-0.0280073 9.17673e-05 0)
(-0.0280116 -7.30775e-05 0)
(-0.0279252 -0.000237951 0)
(-0.0277483 -0.000401967 0)
(-0.0274819 -0.000564225 0)
(-0.027127 -0.000723813 0)
(-0.0266854 -0.000879808 0)
(-0.0261595 -0.00103128 0)
(-0.0255519 -0.00117729 0)
(-0.0248659 -0.00131689 0)
(-0.0241053 -0.00144915 0)
(-0.0232745 -0.00157312 0)
(-0.0223782 -0.00168787 0)
(-0.0214218 -0.00179249 0)
(-0.0204109 -0.00188606 0)
(-0.019352 -0.00196772 0)
(-0.0182516 -0.00203662 0)
(-0.0171171 -0.00209195 0)
(-0.0159559 -0.00213293 0)
(-0.014776 -0.00215886 0)
(-0.0135857 -0.0021691 0)
(-0.0123936 -0.00216305 0)
(-0.0112086 -0.00214024 0)
(-0.0100398 -0.00210025 0)
(-0.00889625 -0.00204283 0)
(-0.00778737 -0.00196781 0)
(-0.00672237 -0.00187521 0)
(-0.00571036 -0.00176524 0)
(-0.00476022 -0.00163834 0)
(-0.00388042 -0.00149523 0)
(-0.00307885 -0.00133705 0)
(-0.00236257 -0.00116538 0)
(-0.00173756 -0.000982477 0)
(-0.00120834 -0.000791491 0)
(-0.000777528 -0.000596787 0)
(-0.000445244 -0.000404436 0)
(-0.000208444 -0.000222897 0)
(-6.01352e-05 -6.39458e-05 0)
(1.16091e-05 5.62523e-05 0)
(2.59591e-05 0.000115789 0)
(1.08695e-05 8.36581e-05 0)
(3.98883e-06 -8.67794e-05 0)
(-1.31336e-05 -7.89786e-05 0)
(-9.22255e-05 5.06074e-05 0)
(-0.000254325 0.000260316 0)
(-0.000515247 0.000520781 0)
(-0.00088542 0.000809968 0)
(-0.00137041 0.0011115 0)
(-0.00197182 0.0014134 0)
(-0.00268809 0.00170696 0)
(-0.00351508 0.00198592 0)
(-0.00444672 0.00224578 0)
(-0.00547538 0.00248341 0)
(-0.00659234 0.00269665 0)
(-0.00778803 0.00288412 0)
(-0.00905234 0.00304499 0)
(-0.0103748 0.0031789 0)
(-0.0117447 0.0032858 0)
(-0.0131514 0.00336593 0)
(-0.0145841 0.00341972 0)
(-0.0160323 0.00344776 0)
(-0.0174858 0.0034508 0)
(-0.0189343 0.00342965 0)
(-0.0203682 0.00338523 0)
(-0.0217781 0.00331852 0)
(-0.023155 0.00323054 0)
(-0.0244902 0.00312237 0)
(-0.0257756 0.0029951 0)
(-0.0270034 0.00284988 0)
(-0.0281665 0.00268786 0)
(-0.029258 0.00251022 0)
(-0.0302716 0.00231815 0)
(-0.0312016 0.00211288 0)
(-0.0320428 0.00189563 0)
(-0.0327903 0.00166765 0)
(-0.0334399 0.00143022 0)
(-0.033988 0.00118461 0)
(-0.0344314 0.000932147 0)
(-0.0347675 0.000674149 0)
(-0.0349944 0.000411965 0)
(-0.0351106 0.000146968 0)
(-0.0351152 -0.000119452 0)
(-0.035008 -0.000385879 0)
(-0.0347893 -0.000650879 0)
(-0.03446 -0.000912997 0)
(-0.0340218 -0.00117076 0)
(-0.0334766 -0.00142268 0)
(-0.0328275 -0.00166725 0)
(-0.0320777 -0.00190296 0)
(-0.0312313 -0.00212831 0)
(-0.030293 -0.00234177 0)
(-0.029268 -0.00254184 0)
(-0.0281623 -0.00272703 0)
(-0.0269824 -0.00289588 0)
(-0.0257354 -0.00304694 0)
(-0.024429 -0.00317882 0)
(-0.0230713 -0.00329018 0)
(-0.0216711 -0.00337974 0)
(-0.0202378 -0.0034463 0)
(-0.0187808 -0.00348874 0)
(-0.0173104 -0.00350606 0)
(-0.015837 -0.00349738 0)
(-0.0143713 -0.00346196 0)
(-0.0129242 -0.00339923 0)
(-0.0115069 -0.00330881 0)
(-0.0101305 -0.00319055 0)
(-0.00880604 -0.00304457 0)
(-0.00754439 -0.0028713 0)
(-0.00635606 -0.00267157 0)
(-0.00525103 -0.00244669 0)
(-0.00423855 -0.00219857 0)
(-0.00332685 -0.00192989 0)
(-0.00252283 -0.0016443 0)
(-0.00183172 -0.0013468 0)
(-0.0012566 -0.00104407 0)
(-0.000797891 -0.000745159 0)
(-0.000452727 -0.000462188 0)
(-0.000214277 -0.000211451 0)
(-7.09047e-05 -1.4532e-05 0)
(-5.37377e-06 0.000100174 0)
(5.22806e-06 9.28674e-05 0)
(-2.69008e-06 -7.34358e-05 0)
(-5.10187e-05 -6.71525e-06 0)
(-0.000192043 0.000206197 0)
(-0.000438954 0.000517025 0)
(-0.000803838 0.000890869 0)
(-0.00129568 0.00130084 0)
(-0.00191897 0.00172637 0)
(-0.00267442 0.002152 0)
(-0.00355969 0.00256613 0)
(-0.00456989 0.00296018 0)
(-0.00569809 0.00332784 0)
(-0.00693572 0.00366457 0)
(-0.00827294 0.00396717 0)
(-0.009699 0.0042335 0)
(-0.0112025 0.00446221 0)
(-0.0127715 0.00465262 0)
(-0.0143938 0.00480452 0)
(-0.0160573 0.00491812 0)
(-0.0177497 0.00499393 0)
(-0.0194588 0.00503273 0)
(-0.0211727 0.00503547 0)
(-0.0228799 0.00500331 0)
(-0.024569 0.00493749 0)
(-0.0262291 0.00483939 0)
(-0.0278497 0.00471046 0)
(-0.0294209 0.00455222 0)
(-0.030933 0.00436625 0)
(-0.0323772 0.00415418 0)
(-0.0337449 0.00391768 0)
(-0.0350282 0.00365846 0)
(-0.0362197 0.00337824 0)
(-0.0373128 0.00307881 0)
(-0.0383013 0.00276194 0)
(-0.0391795 0.00242947 0)
(-0.0399427 0.00208324 0)
(-0.0405864 0.00172513 0)
(-0.041107 0.00135706 0)
(-0.0415016 0.000980962 0)
(-0.0417677 0.000598804 0)
(-0.0419037 0.000212587 0)
(-0.0419086 -0.000175657 0)
(-0.0417822 -0.000563865 0)
(-0.0415247 -0.000949948 0)
(-0.0411374 -0.00133179 0)
(-0.040622 -0.00170723 0)
(-0.0399812 -0.00207413 0)
(-0.0392181 -0.0024303 0)
(-0.0383369 -0.00277354 0)
(-0.0373422 -0.00310166 0)
(-0.0362395 -0.00341248 0)
(-0.0350349 -0.00370381 0)
(-0.0337355 -0.00397351 0)
(-0.0323487 -0.00421947 0)
(-0.0308829 -0.00443961 0)
(-0.0293469 -0.00463195 0)
(-0.0277504 -0.00479454 0)
(-0.0261036 -0.00492559 0)
(-0.024417 -0.00502337 0)
(-0.022702 -0.00508633 0)
(-0.0209702 -0.00511305 0)
(-0.0192337 -0.00510232 0)
(-0.0175049 -0.00505313 0)
(-0.0157963 -0.00496473 0)
(-0.0141208 -0.00483667 0)
(-0.012491 -0.00466882 0)
(-0.0109196 -0.00446147 0)
(-0.00941894 -0.00421537 0)
(-0.008001 -0.00393183 0)
(-0.00667706 -0.00361287 0)
(-0.00545755 -0.00326136 0)
(-0.00435175 -0.00288122 0)
(-0.00336748 -0.0024777 0)
(-0.00251073 -0.00205779 0)
(-0.00178527 -0.00163065 0)
(-0.00119216 -0.00120832 0)
(-0.000729294 -0.000806498 0)
(-0.000390737 -0.000445689 0)
(-0.000166079 -0.000152319 0)
(-4.14338e-05 3.97162e-05 0)
(-1.12299e-06 8.39788e-05 0)
(-9.45925e-06 -3.97403e-05 0)
(-9.06347e-05 0.000116971 0)
(-0.000297654 0.000438327 0)
(-0.000634857 0.000871571 0)
(-0.00110973 0.00137748 0)
(-0.00172914 0.00192511 0)
(-0.00249588 0.0024902 0)
(-0.0034093 0.00305407 0)
(-0.00446594 0.00360238 0)
(-0.00565994 0.00412425 0)
(-0.00698338 0.00461151 0)
(-0.0084267 0.00505814 0)
(-0.00997904 0.0054598 0)
(-0.0116285 0.00581349 0)
(-0.0133625 0.00611728 0)
(-0.0151679 0.00637007 0)
(-0.0170313 0.00657146 0)
(-0.018939 0.00672157 0)
(-0.0208774 0.00682098 0)
(-0.022833 0.00687062 0)
(-0.0247925 0.0068717 0)
(-0.026743 0.00682568 0)
(-0.0286716 0.00673418 0)
(-0.0305662 0.00659902 0)
(-0.032415 0.0064221 0)
(-0.0342068 0.00620545 0)
(-0.0359307 0.00595119 0)
(-0.0375767 0.00566151 0)
(-0.0391351 0.00533864 0)
(-0.0405971 0.00498491 0)
(-0.0419543 0.00460265 0)
(-0.0431992 0.00419427 0)
(-0.0443246 0.0037622 0)
(-0.0453245 0.00330893 0)
(-0.0461932 0.00283696 0)
(-0.0469258 0.00234888 0)
(-0.0475182 0.00184726 0)
(-0.047967 0.00133477 0)
(-0.0482696 0.000814071 0)
(-0.0484241 0.000287901 0)
(-0.0484294 -0.000240977 0)
(-0.0482851 -0.000769754 0)
(-0.0479918 -0.00129559 0)
(-0.0475507 -0.0018156 0)
(-0.0469639 -0.00232687 0)
(-0.0462342 -0.00282646 0)
(-0.0453655 -0.00331143 0)
(-0.0443623 -0.00377879 0)
(-0.0432298 -0.00422558 0)
(-0.0419743 -0.00464884 0)
(-0.0406028 -0.00504564 0)
(-0.0391231 -0.00541306 0)
(-0.0375437 -0.00574827 0)
(-0.0358739 -0.00604848 0)
(-0.0341239 -0.00631103 0)
(-0.0323043 -0.00653332 0)
(-0.0304267 -0.00671295 0)
(-0.028503 -0.00684763 0)
(-0.0265458 -0.0069353 0)
(-0.0245683 -0.00697411 0)
(-0.0225838 -0.00696248 0)
(-0.0206063 -0.00689913 0)
(-0.0186498 -0.00678313 0)
(-0.0167286 -0.00661396 0)
(-0.0148567 -0.00639157 0)
(-0.0130482 -0.00611644 0)
(-0.0113169 -0.00578972 0)
(-0.00967596 -0.00541331 0)
(-0.00813783 -0.00499003 0)
(-0.00671409 -0.00452379 0)
(-0.00541503 -0.00401989 0)
(-0.00424944 -0.00348526 0)
(-0.00322423 -0.00292895 0)
(-0.00234406 -0.0023626 0)
(-0.00161102 -0.00180113 0)
(-0.00102421 -0.00126358 0)
(-0.000579203 -0.000774228 0)
(-0.000267496 -0.000363603 0)
(-7.94291e-05 -6.99776e-05 0)
(-7.61044e-06 5.56279e-05 0)
(-1.60589e-05 1.45589e-05 0)
(-0.000130428 0.000293893 0)
(-0.000405095 0.000750244 0)
(-0.000835292 0.00132811 0)
(-0.00142348 0.00198511 0)
(-0.00217391 0.00268703 0)
(-0.00308727 0.00340655 0)
(-0.00416115 0.00412209 0)
(-0.00539066 0.00481682 0)
(-0.00676871 0.00547767 0)
(-0.00828628 0.00609467 0)
(-0.00993274 0.00666031 0)
(-0.0116962 0.00716907 0)
(-0.0135636 0.00761706 0)
(-0.0155213 0.00800169 0)
(-0.017555 0.00832144 0)
(-0.01965 0.00857562 0)
(-0.0217917 0.00876429 0)
(-0.023965 0.00888803 0)
(-0.0261553 0.00894795 0)
(-0.0283479 0.00894548 0)
(-0.0305288 0.00888242 0)
(-0.0326839 0.00876079 0)
(-0.0347998 0.00858286 0)
(-0.0368636 0.00835104 0)
(-0.0388629 0.00806791 0)
(-0.0407858 0.00773617 0)
(-0.0426212 0.00735862 0)
(-0.0443586 0.00693814 0)
(-0.045988 0.0064777 0)
(-0.0475004 0.00598035 0)
(-0.0488873 0.00544916 0)
(-0.0501411 0.00488732 0)
(-0.0512547 0.00429801 0)
(-0.052222 0.00368452 0)
(-0.0530378 0.00305016 0)
(-0.0536974 0.00239831 0)
(-0.054197 0.0017324 0)
(-0.0545339 0.0010559 0)
(-0.0547058 0.000372366 0)
(-0.0547116 -0.000314628 0)
(-0.054551 -0.00100144 0)
(-0.0542244 -0.00168438 0)
(-0.0537333 -0.00235972 0)
(-0.05308 -0.00302369 0)
(-0.0522677 -0.00367249 0)
(-0.0513006 -0.0043023 0)
(-0.0501835 -0.00490929 0)
(-0.0489225 -0.00548961 0)
(-0.0475244 -0.00603947 0)
(-0.0459968 -0.00655507 0)
(-0.0443484 -0.00703268 0)
(-0.0425886 -0.00746866 0)
(-0.0407276 -0.00785943 0)
(-0.0387766 -0.00820156 0)
(-0.0367473 -0.00849178 0)
(-0.0346524 -0.00872699 0)
(-0.0325049 -0.00890431 0)
(-0.0303188 -0.00902112 0)
(-0.0281083 -0.00907511 0)
(-0.0258884 -0.00906431 0)
(-0.023674 -0.00898716 0)
(-0.0214806 -0.00884254 0)
(-0.0193237 -0.00862988 0)
(-0.0172187 -0.00834923 0)
(-0.015181 -0.00800132 0)
(-0.0132254 -0.00758773 0)
(-0.0113664 -0.007111 0)
(-0.00961768 -0.00657481 0)
(-0.00799177 -0.00598422 0)
(-0.00650008 -0.00534591 0)
(-0.00515243 -0.00466854 0)
(-0.0039568 -0.00396319 0)
(-0.00291902 -0.00324387 0)
(-0.00204248 -0.00252821 0)
(-0.00132793 -0.00183826 0)
(-0.000772857 -0.00120152 0)
(-0.000371127 -0.000651893 0)
(-0.000117757 -0.000230926 0)
(-1.39591e-05 7.46302e-06 0)
(-2.23802e-05 8.91593e-05 0)
(-0.000169551 0.000524336 0)
(-0.000511989 0.0011431 0)
(-0.00103598 0.00188852 0)
(-0.00173881 0.00271603 0)
(-0.00262189 0.00358897 0)
(-0.00368346 0.00447744 0)
(-0.00491907 0.00535748 0)
(-0.00632213 0.00620999 0)
(-0.00788412 0.00701993 0)
(-0.00959475 0.00777561 0)
(-0.0114422 0.0084681 0)
(-0.0134135 0.00909073 0)
(-0.0154945 0.0096387 0)
(-0.0176704 0.0101088 0)
(-0.0199258 0.0104989 0)
(-0.0222451 0.0108082 0)
(-0.0246123 0.0110366 0)
(-0.0270114 0.0111847 0)
(-0.0294266 0.0112537 0)
(-0.0318422 0.0112453 0)
(-0.0342427 0.0111617 0)
(-0.0366133 0.0110053 0)
(-0.0389395 0.0107788 0)
(-0.0412072 0.0104852 0)
(-0.043403 0.0101277 0)
(-0.0455141 0.0097096 0)
(-0.0475285 0.00923434 0)
(-0.0494348 0.00870551 0)
(-0.0512222 0.0081268 0)
(-0.0528808 0.00750199 0)
(-0.0544015 0.00683494 0)
(-0.055776 0.00612959 0)
(-0.0569967 0.00538995 0)
(-0.058057 0.00462011 0)
(-0.0589511 0.00382423 0)
(-0.0596739 0.00300651 0)
(-0.0602216 0.00217127 0)
(-0.0605908 0.00132284 0)
(-0.0607794 0.000465656 0)
(-0.0607861 -0.000395794 0)
(-0.0606104 -0.00125696 0)
(-0.060253 -0.00211324 0)
(-0.0597154 -0.00295998 0)
(-0.0590001 -0.00379245 0)
(-0.0581106 -0.00460594 0)
(-0.0570513 -0.00539567 0)
(-0.0558277 -0.00615686 0)
(-0.0544462 -0.00688474 0)
(-0.0529142 -0.00757457 0)
(-0.0512399 -0.00822165 0)
(-0.0494328 -0.00882133 0)
(-0.047503 -0.0093691 0)
(-0.0454617 -0.00986054 0)
(-0.0433207 -0.0102914 0)
(-0.0410929 -0.0106576 0)
(-0.0387919 -0.0109554 0)
(-0.0364318 -0.0111813 0)
(-0.0340277 -0.0113319 0)
(-0.031595 -0.0114046 0)
(-0.0291496 -0.0113969 0)
(-0.0267079 -0.011307 0)
(-0.0242864 -0.0111335 0)
(-0.0219018 -0.0108759 0)
(-0.0195708 -0.0105344 0)
(-0.0173098 -0.0101098 0)
(-0.015135 -0.00960433 0)
(-0.0130618 -0.00902112 0)
(-0.0111052 -0.00836476 0)
(-0.00927866 -0.00764145 0)
(-0.00759487 -0.00685928 0)
(-0.00606476 -0.00602857 0)
(-0.00469755 -0.00516237 0)
(-0.00350044 -0.00427691 0)
(-0.00247842 -0.00339227 0)
(-0.00163414 -0.00253314 0)
(-0.000967348 -0.00172973 0)
(-0.000474532 -0.00101858 0)
(-0.000155538 -0.000443586 0)
(-2.00491e-05 -6.02867e-05 0)
(-2.83895e-05 0.000183485 0)
(-0.000207582 0.000807669 0)
(-0.000616982 0.00161668 0)
(-0.00123431 0.00255309 0)
(-0.00205177 0.00357094 0)
(-0.00306776 0.00463177 0)
(-0.00427793 0.00570371 0)
(-0.00567555 0.00676075 0)
(-0.00725215 0.00778189 0)
(-0.00899759 0.00875032 0)
(-0.0109001 0.0096528 0)
(-0.0129467 0.0104791 0)
(-0.0151231 0.0112214 0)
(-0.0174141 0.011874 0)
(-0.0198038 0.0124331 0)
(-0.0222758 0.0128963 0)
(-0.0248133 0.0132622 0)
(-0.0273993 0.0135306 0)
(-0.0300168 0.0137024 0)
(-0.0326489 0.0137787 0)
(-0.0352788 0.0137617 0)
(-0.0378903 0.0136536 0)
(-0.0404674 0.0134576 0)
(-0.0429945 0.0131767 0)
(-0.0454568 0.0128146 0)
(-0.0478399 0.0123749 0)
(-0.0501302 0.0118618 0)
(-0.0523148 0.0112793 0)
(-0.0543814 0.0106318 0)
(-0.0563187 0.00992374 0)
(-0.058116 0.00915971 0)
(-0.0597636 0.00834438 0)
(-0.0612525 0.00748254 0)
(-0.0625747 0.00657906 0)
(-0.0637231 0.0056389 0)
(-0.0646914 0.00466712 0)
(-0.0654744 0.00366884 0)
(-0.0660677 0.00264929 0)
(-0.066468 0.00161377 0)
(-0.0666728 0.000567643 0)
(-0.0666807 -0.00048362 0)
(-0.0664914 -0.0015345 0)
(-0.0661054 -0.00257939 0)
(-0.0655244 -0.00361263 0)
(-0.064751 -0.00462852 0)
(-0.0637891 -0.0056213 0)
(-0.0626433 -0.0065852 0)
(-0.0613194 -0.00751442 0)
(-0.0598243 -0.00840319 0)
(-0.0581659 -0.00924575 0)
(-0.0563532 -0.0100364 0)
(-0.0543959 -0.0107696 0)
(-0.052305 -0.0114398 0)
(-0.0500924 -0.0120418 0)
(-0.0477708 -0.0125704 0)
(-0.0453539 -0.0130207 0)
(-0.0428561 -0.0133881 0)
(-0.0402927 -0.0136685 0)
(-0.0376796 -0.013858 0)
(-0.0350333 -0.0139533 0)
(-0.0323707 -0.0139515 0)
(-0.0297092 -0.0138504 0)
(-0.0270666 -0.0136487 0)
(-0.0244607 -0.0133455 0)
(-0.0219091 -0.0129413 0)
(-0.0194296 -0.0124372 0)
(-0.0170392 -0.0118357 0)
(-0.0147548 -0.0111409 0)
(-0.0125923 -0.010358 0)
(-0.0105664 -0.00949454 0)
(-0.00869104 -0.00855984 0)
(-0.00697838 -0.00756588 0)
(-0.00543906 -0.0065275 0)
(-0.00408183 -0.00546298 0)
(-0.0029135 -0.00439457 0)
(-0.00193884 -0.00334925 0)
(-0.00116003 -0.00235942 0)
(-0.000576319 -0.00146367 0)
(-0.000192324 -0.000707477 0)
(-2.58406e-05 -0.000147098 0)
(-3.40904e-05 0.000296846 0)
(-0.000244344 0.00114276 0)
(-0.000719373 0.00216994 0)
(-0.00142882 0.00332106 0)
(-0.00235995 0.00454939 0)
(-0.00350819 0.00581524 0)
(-0.00486647 0.00708521 0)
(-0.00642566 0.00833169 0)
(-0.00817525 0.00953204 0)
(-0.0101033 0.0106679 0)
(-0.0121966 0.0117248 0)
(-0.0144406 0.0126911 0)
(-0.0168198 0.0135582 0)
(-0.0193179 0.0143195 0)
(-0.0219178 0.0149705 0)
(-0.0246021 0.0155084 0)
(-0.0273529 0.0159317 0)
(-0.0301522 0.0162401 0)
(-0.032982 0.0164343 0)
(-0.0358245 0.0165157 0)
(-0.0386619 0.0164868 0)
(-0.0414771 0.0163503 0)
(-0.0442531 0.0161095 0)
(-0.0469736 0.0157682 0)
(-0.0496227 0.0153307 0)
(-0.0521855 0.0148012 0)
(-0.0546474 0.0141845 0)
(-0.0569947 0.0134856 0)
(-0.0592146 0.0127094 0)
(-0.061295 0.0118614 0)
(-0.0632247 0.0109469 0)
(-0.0649932 0.00997144 0)
(-0.0665913 0.00894074 0)
(-0.0680104 0.00786058 0)
(-0.0692428 0.00673686 0)
(-0.0702821 0.00557557 0)
(-0.0711226 0.00438283 0)
(-0.0717598 0.00316484 0)
(-0.07219 0.00192789 0)
(-0.0724107 0.00067838 0)
(-0.0724205 -0.000577205 0)
(-0.0722188 -0.00183229 0)
(-0.0718063 -0.00308024 0)
(-0.0711847 -0.00431432 0)
(-0.0703569 -0.00552776 0)
(-0.0693268 -0.00671372 0)
(-0.0680994 -0.00786535 0)
(-0.0666808 -0.0089758 0)
(-0.0650782 -0.0100382 0)
(-0.0633 -0.0110458 0)
(-0.0613556 -0.0119917 0)
(-0.0592555 -0.0128695 0)
(-0.0570111 -0.0136726 0)
(-0.054635 -0.0143948 0)
(-0.0521406 -0.0150299 0)
(-0.0495424 -0.0155723 0)
(-0.0468557 -0.0160166 0)
(-0.0440966 -0.0163578 0)
(-0.0412817 -0.0165915 0)
(-0.0384287 -0.0167136 0)
(-0.0355555 -0.016721 0)
(-0.0326804 -0.016611 0)
(-0.0298222 -0.0163821 0)
(-0.0269997 -0.0160335 0)
(-0.0242318 -0.0155655 0)
(-0.0215372 -0.0149797 0)
(-0.0189343 -0.0142791 0)
(-0.0164408 -0.0134681 0)
(-0.0140739 -0.0125532 0)
(-0.0118497 -0.0115427 0)
(-0.00978317 -0.0104473 0)
(-0.0078881 -0.00928056 0)
(-0.00617659 -0.0080589 0)
(-0.00465914 -0.00680243 0)
(-0.00334448 -0.00553535 0)
(-0.00223967 -0.00428652 0)
(-0.00134944 -0.00309016 0)
(-0.000675777 -0.00198635 0)
(-0.000227929 -0.00102161 0)
(-3.1334e-05 -0.000252323 0)
(-3.95061e-05 0.000428526 0)
(-0.000279806 0.00152826 0)
(-0.000818879 0.00280137 0)
(-0.00161878 0.00419103 0)
(-0.0026621 0.00565023 0)
(-0.00394131 0.00713843 0)
(-0.00544662 0.00862116 0)
(-0.00716641 0.0100695 0)
(-0.00908802 0.0114595 0)
(-0.0111976 0.0127717 0)
(-0.0134803 0.0139901 0)
(-0.0159202 0.0151023 0)
(-0.0185002 0.0160987 0)
(-0.021203 0.0169721 0)
(-0.0240102 0.0177174 0)
(-0.0269033 0.0183313 0)
(-0.0298634 0.0188123 0)
(-0.0328716 0.0191598 0)
(-0.0359088 0.0193747 0)
(-0.0389564 0.0194587 0)
(-0.0419957 0.0194143 0)
(-0.0450086 0.0192448 0)
(-0.0479774 0.0189541 0)
(-0.0508849 0.0185464 0)
(-0.0537145 0.0180265 0)
(-0.0564505 0.0173996 0)
(-0.0590777 0.016671 0)
(-0.0615816 0.0158466 0)
(-0.0639489 0.0149321 0)
(-0.0661668 0.0139338 0)
(-0.0682235 0.012858 0)
(-0.0701083 0.011711 0)
(-0.0718111 0.0104997 0)
(-0.0733231 0.00923059 0)
(-0.0746364 0.00791068 0)
(-0.075744 0.00654696 0)
(-0.07664 0.00514654 0)
(-0.0773196 0.00371667 0)
(-0.077779 0.0022647 0)
(-0.0780156 0.000798087 0)
(-0.0780278 -0.000675596 0)
(-0.077815 -0.00214869 0)
(-0.077378 -0.00361342 0)
(-0.0767186 -0.00506198 0)
(-0.0758396 -0.00648644 0)
(-0.0747451 -0.00787885 0)
(-0.0734404 -0.00923124 0)
(-0.071932 -0.0105356 0)
(-0.0702272 -0.0117839 0)
(-0.0683349 -0.0129683 0)
(-0.0662649 -0.014081 0)
(-0.0640281 -0.0151142 0)
(-0.0616366 -0.0160604 0)
(-0.0591036 -0.0169123 0)
(-0.056443 -0.0176629 0)
(-0.0536701 -0.0183056 0)
(-0.0508008 -0.018834 0)
(-0.047852 -0.0192425 0)
(-0.0448415 -0.0195259 0)
(-0.0417874 -0.0196796 0)
(-0.0387087 -0.0196998 0)
(-0.0356247 -0.0195837 0)
(-0.0325551 -0.0193294 0)
(-0.0295199 -0.0189359 0)
(-0.0265388 -0.0184038 0)
(-0.0236318 -0.0177348 0)
(-0.0208183 -0.0169322 0)
(-0.0181173 -0.0160013 0)
(-0.0155471 -0.0149492 0)
(-0.0131252 -0.0137853 0)
(-0.0108681 -0.0125214 0)
(-0.00879091 -0.0111724 0)
(-0.00690747 -0.00975643 0)
(-0.00523009 -0.00829505 0)
(-0.00376963 -0.00681415 0)
(-0.00253546 -0.0053442 0)
(-0.00153489 -0.00392086 0)
(-0.000772637 -0.00258534 0)
(-0.000262323 -0.00138476 0)
(-3.65504e-05 -0.000375288 0)
(-4.46656e-05 0.000577834 0)
(-0.000314023 0.00196271 0)
(-0.000915485 0.00350922 0)
(-0.00180399 0.00516127 0)
(-0.00295771 0.00687184 0)
(-0.00436628 0.00859993 0)
(-0.00601716 0.0103103 0)
(-0.00789625 0.0119731 0)
(-0.00998866 0.0135633 0)
(-0.0122786 0.0150603 0)
(-0.0147494 0.0164473 0)
(-0.0173836 0.017711 0)
(-0.0201627 0.018841 0)
(-0.0230681 0.0198294 0)
(-0.0260801 0.0206709 0)
(-0.0291793 0.0213617 0)
(-0.0323455 0.0219 0)
(-0.035559 0.0222856 0)
(-0.0387997 0.0225191 0)
(-0.042048 0.0226026 0)
(-0.0452846 0.022539 0)
(-0.0484903 0.022332 0)
(-0.0516468 0.0219858 0)
(-0.0547362 0.0215054 0)
(-0.0577411 0.0208963 0)
(-0.060645 0.0201643 0)
(-0.0634322 0.0193157 0)
(-0.0660877 0.0183568 0)
(-0.0685974 0.0172946 0)
(-0.0709482 0.016136 0)
(-0.0731276 0.0148884 0)
(-0.0751245 0.013559 0)
(-0.0769285 0.0121556 0)
(-0.0785304 0.0106859 0)
(-0.0799217 0.0091577 0)
(-0.0810955 0.00757917 0)
(-0.0820454 0.00595847 0)
(-0.0827664 0.00430391 0)
(-0.0832547 0.00262394 0)
(-0.0835073 0.000927146 0)
(-0.0835227 -0.000777783 0)
(-0.0833002 -0.00248204 0)
(-0.0828406 -0.00417671 0)
(-0.0821456 -0.0058528 0)
(-0.0812184 -0.00750122 0)
(-0.0800631 -0.00911285 0)
(-0.0786851 -0.0106785 0)
(-0.077091 -0.012189 0)
(-0.0752887 -0.0136352 0)
(-0.0732873 -0.0150081 0)
(-0.0710969 -0.0162985 0)
(-0.0687288 -0.0174978 0)
(-0.0661957 -0.0185972 0)
(-0.0635112 -0.0195885 0)
(-0.0606899 -0.0204634 0)
(-0.0577477 -0.0212146 0)
(-0.0547011 -0.0218347 0)
(-0.0515678 -0.0223172 0)
(-0.0483662 -0.0226562 0)
(-0.0451155 -0.0228464 0)
(-0.0418354 -0.0228837 0)
(-0.0385462 -0.0227646 0)
(-0.0352685 -0.022487 0)
(-0.0320232 -0.0220499 0)
(-0.0288313 -0.0214536 0)
(-0.0257137 -0.0207003 0)
(-0.022691 -0.0197937 0)
(-0.0197835 -0.0187394 0)
(-0.0170109 -0.0175453 0)
(-0.0143919 -0.0162217 0)
(-0.0119445 -0.0147817 0)
(-0.00968552 -0.0132412 0)
(-0.00763053 -0.0116197 0)
(-0.00579379 -0.00994024 0)
(-0.00418829 -0.00823013 0)
(-0.00282583 -0.00652117 0)
(-0.00171625 -0.00485016 0)
(-0.000866915 -0.00325916 0)
(-0.000295569 -0.00179563 0)
(-4.15207e-05 -0.000515346 0)
(-4.96006e-05 0.00074413 0)
(-0.000347094 0.00244472 0)
(-0.00100934 0.00429173 0)
(-0.00198458 0.00622991 0)
(-0.00324682 0.00821242 0)
(-0.00478294 0.0101981 0)
(-0.00657777 0.0121511 0)
(-0.00861468 0.014041 0)
(-0.0108765 0.0158419 0)
(-0.0133455 0.0175325 0)
(-0.0160031 0.0190951 0)
(-0.0188302 0.0205157 0)
(-0.0218069 0.0217832 0)
(-0.024913 0.0228895 0)
(-0.0281279 0.0238286 0)
(-0.0314308 0.0245967 0)
(-0.0348006 0.025192 0)
(-0.0382164 0.025614 0)
(-0.0416574 0.0258638 0)
(-0.045103 0.0259436 0)
(-0.0485331 0.0258567 0)
(-0.0519277 0.0256071 0)
(-0.0552678 0.0252 0)
(-0.0585348 0.0246407 0)
(-0.0617106 0.0239354 0)
(-0.0647782 0.0230908 0)
(-0.0677211 0.0221138 0)
(-0.0705239 0.0210118 0)
(-0.073172 0.0197926 0)
(-0.0756517 0.018464 0)
(-0.0779503 0.0170343 0)
(-0.0800561 0.015512 0)
(-0.0819583 0.0139055 0)
(-0.0836475 0.0122238 0)
(-0.0851148 0.0104758 0)
(-0.086353 0.00867059 0)
(-0.0873557 0.00681751 0)
(-0.0881175 0.00492598 0)
(-0.0886343 0.00300559 0)
(-0.0889034 0.00106608 0)
(-0.0889227 -0.000882696 0)
(-0.0886919 -0.00283075 0)
(-0.0882116 -0.00476798 0)
(-0.0874835 -0.00668417 0)
(-0.0865107 -0.00856903 0)
(-0.0852977 -0.0104122 0)
(-0.0838498 -0.0122033 0)
(-0.0821741 -0.0139319 0)
(-0.0802784 -0.0155877 0)
(-0.0781722 -0.0171602 0)
(-0.0758659 -0.0186395 0)
(-0.0733713 -0.0200153 0)