/*--------------------------------*- C++ -*----------------------------------*\
  =========                 |
  \\      /  F ield         | OpenFOAM: The Open Source CFD Toolbox
   \\    /   O peration     | Website:  https://openfoam.org
    \\  /    A nd           | Version:  7
     \\/     M anipulation  |
\*---------------------------------------------------------------------------*/
FoamFile
{
    version     2.0;
    format      ascii;
    class       volScalarField;
    location    "0.5";
    object      p;
}
// * * * * * * * * * * * * * * * * * * * * * * * * * * * * * * * * * * * * * //

dimensions      [0 2 -2 0 0 0 0];

internalField   nonuniform List<scalar> 
25600
(
1.33082e-06
0.000113574
0.000141925
3.37652e-05
-0.000219758
-0.000614481
-0.0011391
-0.00177922
-0.0025195
-0.00334472
-0.00424033
-0.0051927
-0.0061892
-0.00721814
-0.00826884
-0.00933148
-0.0103971
-0.0114574
-0.0125049
-0.0135325
-0.014534
-0.0155035
-0.0164358
-0.017326
-0.0181698
-0.0189632
-0.0197027
-0.0203851
-0.0210075
-0.0215672
-0.022062
-0.0224899
-0.0228493
-0.0231385
-0.0233563
-0.0235016
-0.0235736
-0.0235716
-0.0234951
-0.023344
-0.0231179
-0.0228171
-0.0224416
-0.0219918
-0.0214681
-0.0208712
-0.0202018
-0.0194606
-0.0186486
-0.0177669
-0.0168166
-0.0157989
-0.0147152
-0.0135669
-0.0123556
-0.0110828
-0.00975017
-0.00835957
-0.00691278
-0.00541171
-0.00385831
-0.00225461
-0.000602704
0.00109527
0.00283712
0.00462057
0.00644331
0.00830299
0.0101972
0.0121235
0.0140793
0.0160623
0.0180698
0.0200992
0.0221479
0.0242133
0.0262926
0.0283832
0.0304823
0.0325872
0.0346951
0.0368031
0.0389086
0.0410087
0.0431006
0.0451815
0.0472485
0.049299
0.0513299
0.0533387
0.0553225
0.0572786
0.0592042
0.0610966
0.0629533
0.0647714
0.0665485
0.0682819
0.0699692
0.0716079
0.0731957
0.0747301
0.0762089
0.0776299
0.0789911
0.0802903
0.0815256
0.0826952
0.0837973
0.0848304
0.0857927
0.086683
0.0875
0.0882424
0.0889093
0.0894998
0.0900131
0.0904485
0.0908058
0.0910847
0.0912849
0.0914068
0.0914505
0.0914165
0.0913056
0.0911186
0.0908567
0.0905213
0.0901139
0.0896365
0.0890912
0.0884804
0.0878068
0.0870734
0.0862836
0.085441
0.0845496
0.083614
0.0826387
0.0816292
0.0805911
0.0795306
0.0784543
0.0773694
0.076284
0.0752063
0.0741456
0.0731118
0.0721155
0.0711683
0.0702826
0.0694714
0.0687488
0.0681292
0.067627
0.0672552
0.0670234
0.0669331
0.0669736
0.067089
-0.000109839
1.62261e-06
5.66599e-06
-0.000115407
-0.000357652
-0.000719205
-0.00119368
-0.00177071
-0.00243822
-0.00318378
-0.00399523
-0.00486078
-0.00576915
-0.00670973
-0.0076727
-0.00864898
-0.00963012
-0.0106083
-0.0115763
-0.0125275
-0.0134556
-0.0143551
-0.0152208
-0.016048
-0.0168325
-0.0175704
-0.0182581
-0.0188925
-0.0194706
-0.0199898
-0.0204479
-0.0208428
-0.0211729
-0.0214365
-0.0216323
-0.0217592
-0.0218163
-0.0218029
-0.0217184
-0.0215627
-0.0213353
-0.0210364
-0.0206659
-0.0202243
-0.0197118
-0.0191291
-0.0184767
-0.0177554
-0.016966
-0.0161096
-0.0151871
-0.0141998
-0.013149
-0.0120359
-0.010862
-0.00962888
-0.00833813
-0.00699143
-0.00559053
-0.00413725
-0.00263346
-0.00108113
0.000517751
0.00216111
0.00384683
0.00557273
0.00733657
0.00913608
0.0109689
0.0128327
0.0147251
0.0166437
0.0185859
0.0205493
0.0225313
0.0245294
0.026541
0.0285633
0.0305939
0.03263
0.0346689
0.036708
0.0387445
0.0407758
0.042799
0.0448116
0.0468108
0.0487938
0.050758
0.0527007
0.0546192
0.0565108
0.058373
0.0602031
0.0619986
0.0637569
0.0654755
0.0671519
0.0687838
0.0703688
0.0719046
0.0733889
0.0748196
0.0761947
0.077512
0.0787696
0.0799658
0.0810987
0.0821666
0.0831681
0.0841017
0.084966
0.0857599
0.0864823
0.0871321
0.0877087
0.0882114
0.0886395
0.0889929
0.0892712
0.0894744
0.0896028
0.0896566
0.0896365
0.089543
0.0893773
0.0891404
0.0888337
0.088459
0.088018
0.087513
0.0869463
0.0863206
0.0856388
0.0849044
0.0841209
0.0832922
0.0824227
0.081517
0.0805803
0.0796181
0.0786362
0.0776413
0.07664
0.07564
0.0746492
0.0736762
0.0727302
0.0718209
0.0709588
0.0701547
0.0694202
0.068767
0.0682065
0.06775
0.0674066
0.0671815
0.067075
0.0670889
0.0672044
-0.000139058
-2.35347e-06
1.7445e-06
-0.000120787
-0.000353
-0.000691984
-0.00113254
-0.00166595
-0.00228201
-0.0029702
-0.0037199
-0.00452066
-0.00536234
-0.00623532
-0.00713055
-0.00803955
-0.00895439
-0.00986767
-0.0107725
-0.0116626
-0.0125318
-0.0133749
-0.0141868
-0.0149629
-0.0156992
-0.0163917
-0.017037
-0.017632
-0.0181736
-0.0186595
-0.0190872
-0.0194549
-0.0197607
-0.0200031
-0.0201806
-0.0202922
-0.0203369
-0.0203139
-0.0202228
-0.0200631
-0.0198346
-0.0195373
-0.019171
-0.0187362
-0.0182331
-0.0176622
-0.0170241
-0.0163194
-0.015549
-0.0147138
-0.0138148
-0.012853
-0.0118297
-0.0107462
-0.00960387
-0.00840417
-0.00714865
-0.00583893
-0.00447668
-0.00306366
-0.00160169
-9.26506e-05
0.00146152
0.00305883
0.00469722
0.00637457
0.00808873
0.00983748
0.0116186
0.0134297
0.0152685
0.0171328
0.0190199
0.0209276
0.0228534
0.0247947
0.0267491
0.0287139
0.0306867
0.0326648
0.0346456
0.0366265
0.0386049
0.0405782
0.0425437
0.0444987
0.0464407
0.048367
0.0502749
0.052162
0.0540255
0.055863
0.0576718
0.0594495
0.0611936
0.0629016
0.0645711
0.0661997
0.0677851
0.069325
0.0708172
0.0722595
0.07365
0.0749865
0.0762671
0.0774899
0.0786533
0.0797554
0.0807948
0.0817699
0.0826794
0.0835221
0.0842967
0.0850023
0.085638
0.0862031
0.0866969
0.0871189
0.087469
0.0877468
0.0879525
0.0880863
0.0881485
0.0881398
0.0880608
0.0879126
0.0876963
0.0874134
0.0870655
0.0866545
0.0861825
0.0856519
0.0850653
0.0844258
0.0837365
0.083001
0.0822231
0.0814071
0.0805576
0.0796793
0.0787778
0.0778587
0.0769283
0.075993
0.07506
0.0741368
0.0732315
0.0723526
0.0715091
0.0707105
0.0699666
0.0692875
0.0686833
0.0681639
0.0677386
0.0674151
0.0671978
0.0670886
0.0671027
0.067245
-3.15417e-05
0.000118346
0.000124119
1.93939e-06
-0.000224349
-0.000549695
-0.00096842
-0.00147234
-0.00205242
-0.00269927
-0.00340335
-0.0041552
-0.00494564
-0.0057659
-0.00660764
-0.00746292
-0.00832432
-0.00918486
-0.010038
-0.0108776
-0.0116981
-0.0124942
-0.013261
-0.0139942
-0.0146897
-0.0153438
-0.0159531
-0.0165145
-0.017025
-0.0174823
-0.017884
-0.0182283
-0.0185132
-0.0187372
-0.0188989
-0.0189972
-0.0190311
-0.0189999
-0.018903
-0.01874
-0.0185105
-0.0182145
-0.017852
-0.0174231
-0.0169283
-0.0163678
-0.0157422
-0.0150522
-0.0142984
-0.0134819
-0.0126034
-0.0116641
-0.0106652
-0.00960777
-0.00849325
-0.00732303
-0.0060986
-0.00482152
-0.0034934
-0.00211595
-0.000690923
0.000779858
0.00229452
0.00385111
0.00544766
0.00708209
0.00875231
0.0104562
0.0121915
0.013956
0.0157475
0.0175637
0.0194022
0.0212606
0.0231366
0.0250278
0.0269316
0.0288456
0.0307673
0.0326941
0.0346236
0.0365531
0.0384802
0.0404022
0.0423167
0.044221
0.0461125
0.0479887
0.0498471
0.0516851
0.0535002
0.0552899
0.0570518
0.0587833
0.0604822
0.0621459
0.0637721
0.0653586
0.0669031
0.0684034
0.0698574
0.0712629
0.0726179
0.0739206
0.075169
0.0763613
0.0774959
0.0785711
0.0795855
0.0805376
0.081426
0.0822497
0.0830075
0.0836985
0.0843218
0.0848768
0.0853628
0.0857795
0.0861266
0.086404
0.0866118
0.0867502
0.0868197
0.0868207
0.0867541
0.0866209
0.0864223
0.0861598
0.0858348
0.0854494
0.0850055
0.0845057
0.0839524
0.0833486
0.0826974
0.0820024
0.0812672
0.080496
0.0796932
0.0788636
0.0780123
0.0771448
0.076267
0.0753853
0.0745062
0.073637
0.0727851
0.0719586
0.0711657
0.0704151
0.0697157
0.0690767
0.0685071
0.0680156
0.0676107
0.0672999
0.0670879
0.066979
0.0669962
0.0671553
0.000220797
0.000360076
0.000356588
0.000228769
2.4005e-06
-0.000316078
-0.000720578
-0.00120329
-0.00175597
-0.00237012
-0.0030371
-0.00374835
-0.00449557
-0.00527072
-0.0060661
-0.00687438
-0.00768861
-0.00850223
-0.00930906
-0.0101033
-0.0108795
-0.0116328
-0.0123584
-0.0130523
-0.0137103
-0.014329
-0.0149049
-0.0154351
-0.0159167
-0.0163473
-0.0167248
-0.0170471
-0.0173124
-0.0175192
-0.0176661
-0.0177519
-0.0177757
-0.0177368
-0.0176344
-0.0174682
-0.0172379
-0.0169433
-0.0165844
-0.0161613
-0.0156743
-0.0151238
-0.0145103
-0.0138343
-0.0130966
-0.0122979
-0.0114393
-0.0105216
-0.00954597
-0.00851364
-0.00742585
-0.00628397
-0.00508943
-0.00384373
-0.00254844
-0.0012052
0.00018428
0.00161825
0.00309488
0.0046123
0.00616857
0.00776169
0.00938962
0.0110503
0.0127415
0.0144612
0.0162071
0.017977
0.0197687
0.0215797
0.0234079
0.0252507
0.0271059
0.0289709
0.0308435
0.032721
0.0346011
0.0364812
0.038359
0.0402318
0.0420972
0.0439526
0.0457957
0.0476238
0.0494346
0.0512255
0.0529941
0.054738
0.0564548
0.0581421
0.0597975
0.0614188
0.0630036
0.0645498
0.0660552
0.0675175
0.0689348
0.070305
0.0716262
0.0728966
0.0741142
0.0752774
0.0763845
0.077434
0.0784244
0.0793544
0.0802228
0.0810284
0.0817701
0.0824471
0.0830586
0.0836039
0.0840825
0.084494
0.0848383
0.0851152
0.0853249
0.0854676
0.0855437
0.0855538
0.0854988
0.0853797
0.0851976
0.0849539
0.0846504
0.0842887
0.083871
0.0833997
0.0828772
0.0823064
0.0816904
0.0810325
0.0803365
0.0796062
0.0788461
0.0780605
0.0772546
0.0764335
0.0756028
0.0747686
0.0739371
0.0731151
0.0723095
0.0715278
0.0707776
0.070067
0.0694039
0.0687967
0.0682535
0.0677823
0.0673911
0.0670869
0.0668751
0.0667613
0.0667715
0.0669246
0.000614267
0.000721838
0.000696346
0.00055473
0.000321091
2.29026e-06
-0.000395517
-0.000864914
-0.00139825
-0.00198776
-0.00262566
-0.00330419
-0.0040158
-0.00475314
-0.00550913
-0.00627697
-0.00705022
-0.00782272
-0.00858864
-0.0093425
-0.0100792
-0.010794
-0.0114825
-0.0121406
-0.0127646
-0.0133509
-0.0138962
-0.0143978
-0.0148528
-0.0152588
-0.0156139
-0.0159158
-0.016163
-0.0163538
-0.016487
-0.0165612
-0.0165757
-0.0165296
-0.0164222
-0.0162532
-0.0160221
-0.0157289
-0.0153735
-0.014956
-0.0144766
-0.0139357
-0.0133336
-0.0126711
-0.0119487
-0.0111671
-0.0103274
-0.00943029
-0.008477
-0.00746862
-0.00640638
-0.00529158
-0.00412561
-0.00290991
-0.00164601
-0.000335491
0.00102
0.00241877
0.00385903
0.00533897
0.00685671
0.00841031
0.00999777
0.0116171
0.0132662
0.0149429
0.0166452
0.0183709
0.0201177
0.0218834
0.0236658
0.0254624
0.0272711
0.0290894
0.0309149
0.0327453
0.0345782
0.0364111
0.0382417
0.0400675
0.041886
0.0436949
0.0454916
0.0472739
0.0490392
0.0507851
0.0525094
0.0542096
0.0558834
0.0575285
0.0591426
0.0607234
0.0622688
0.0637766
0.0652447
0.0666709
0.0680533
0.06939
0.070679
0.0719186
0.073107
0.0742424
0.0753235
0.0763485
0.0773163
0.0782254
0.0790747
0.079863
0.0805895
0.0812532
0.0818534
0.0823895
0.082861
0.0832676
0.0836091
0.0838854
0.0840967
0.0842432
0.0843255
0.084344
0.0842997
0.0841935
0.0840266
0.0838004
0.0835165
0.0831767
0.082783
0.0823378
0.0818435
0.0813029
0.0807189
0.0800949
0.0794343
0.078741
0.0780192
0.0772732
0.0765076
0.0757277
0.0749385
0.0741459
0.0733557
0.0725743
0.0718081
0.071064
0.0703491
0.0696706
0.0690361
0.0684529
0.0679285
0.0674704
0.0670857
0.0667815
0.0665632
0.0664372
0.0664284
0.0665546
0.00113835
0.00119725
0.00113826
0.000974584
0.000726125
0.000399604
1.02898e-06
-0.000462654
-0.000984357
-0.001557
-0.00217354
-0.00282697
-0.00351039
-0.00421708
-0.00494054
-0.00567451
-0.00641297
-0.00715019
-0.0078807
-0.00859935
-0.00930133
-0.00998216
-0.0106377
-0.011264
-0.0118574
-0.0124146
-0.0129324
-0.013408
-0.0138389
-0.0142226
-0.0145572
-0.0148407
-0.0150713
-0.0152475
-0.015368
-0.0154317
-0.0154376
-0.015385
-0.0152731
-0.0151016
-0.01487
-0.0145783
-0.0142263
-0.0138141
-0.0133419
-0.0128101
-0.012219
-0.0115692
-0.0108613
-0.010096
-0.00927414
-0.00839663
-0.00746449
-0.00647883
-0.00544081
-0.00435169
-0.00321281
-0.00202557
-0.000791447
0.000488037
0.00181128
0.00317664
0.0045824
0.00602678
0.00750795
0.00902403
0.0105731
0.0121532
0.0137623
0.0153983
0.0170592
0.0187429
0.0204472
0.0221698
0.0239087
0.0256616
0.0274261
0.0292
0.030981
0.0327667
0.0345549
0.036343
0.0381289
0.0399101
0.0416843
0.043449
0.045202
0.0469407
0.048663
0.0503664
0.0520488
0.0537076
0.0553408
0.056946
0.058521
0.0600637
0.0615718
0.0630433
0.0644762
0.0658684
0.0672179
0.0685229
0.0697816
0.0709922
0.072153
0.0732624
0.0743188
0.0753209
0.0762672
0.0771566
0.0779879
0.0787601
0.0794721
0.0801233
0.0807129
0.0812403
0.081705
0.0821068
0.0824456
0.0827212
0.0829338
0.0830838
0.0831715
0.0831977
0.083163
0.0830685
0.0829154
0.0827051
0.082439
0.082119
0.0817472
0.0813256
0.0808567
0.0803432
0.0797879
0.0791942
0.0785653
0.0779049
0.0772169
0.0765056
0.0757755
0.0750313
0.074278
0.073521
0.0727658
0.0720184
0.0712847
0.0705711
0.0698841
0.0692305
0.0686169
0.0680503
0.0675374
0.0670851
0.0667
0.0663888
0.066157
0.0660109
0.0659719
0.0660543
0.00177905
0.00177623
0.00167412
0.00148073
0.0012102
0.000868887
0.000462593
-2.32482e-06
-0.000519412
-0.00108226
-0.00168448
-0.00231972
-0.00298172
-0.00366433
-0.00436159
-0.00506773
-0.00577717
-0.00648456
-0.0071848
-0.0078731
-0.00854493
-0.00919607
-0.00982257
-0.0104207
-0.010987
-0.0115182
-0.0120113
-0.0124637
-0.0128728
-0.0132365
-0.0135526
-0.0138193
-0.0140348
-0.0141978
-0.0143069
-0.014361
-0.0143592
-0.0143006
-0.0141848
-0.0140111
-0.0137792
-0.013489
-0.0131403
-0.0127333
-0.0122681
-0.011745
-0.0111643
-0.0105266
-0.00983246
-0.00908255
-0.00827767
-0.0074187
-0.00650661
-0.00554247
-0.0045274
-0.00346262
-0.00234942
-0.00118916
1.67473e-05
0.00126681
0.00255949
0.00389318
0.00526621
0.00667687
0.00812338
0.0096039
0.0111166
0.0126594
0.0142306
0.015828
0.0174497
0.0190935
0.0207575
0.0224394
0.0241371
0.0258484
0.0275712
0.029303
0.0310418
0.0327852
0.034531
0.0362768
0.0380204
0.0397594
0.0414916
0.0432145
0.044926
0.0466237
0.0483053
0.0499685
0.0516112
0.053231
0.0548258
0.0563933
0.0579315
0.0594381
0.0609111
0.0623484
0.0637481
0.0651082
0.0664267
0.0677019
0.068932
0.0701153
0.0712501
0.0723349
0.0733683
0.0743487
0.0752749
0.0761458
0.0769602
0.077717
0.0784155
0.0790549
0.0796344
0.0801535
0.0806118
0.081009
0.081345
0.0816198
0.0818335
0.0819865
0.0820791
0.082112
0.082086
0.0820022
0.0818615
0.0816654
0.0814155
0.0811133
0.080761
0.0803606
0.0799145
0.0794252
0.0788956
0.0783286
0.0777277
0.0770962
0.076438
0.075757
0.0750575
0.074344
0.0736213
0.0728943
0.0721683
0.0714487
0.0707411
0.0700515
0.0693859
0.0687503
0.0681509
0.067594
0.0670858
0.0666326
0.0662405
0.0659155
0.0656632
0.0654896
0.0654108
0.0654362
0.00252174
0.00244762
0.0022946
0.00206475
0.00176559
0.00140306
0.000982718
0.000510251
-8.58615e-06
-0.000568028
-0.0011623
-0.00178564
-0.00243236
-0.00309689
-0.00377375
-0.00445763
-0.00514336
-0.00582599
-0.00650079
-0.00716328
-0.00780925
-0.00843473
-0.00903597
-0.00960944
-0.0101518
-0.01066
-0.0111312
-0.0115629
-0.0119526
-0.0122983
-0.0125978
-0.0128493
-0.0130514
-0.0132024
-0.0133012
-0.0133467
-0.013338
-0.0132742
-0.0131548
-0.0129793
-0.0127474
-0.0124588
-0.0121135
-0.0117115
-0.0112529
-0.0107381
-0.0101674
-0.00954116
-0.00886009
-0.00812478
-0.007336
-0.0064946
-0.00560151
-0.00465775
-0.00366443
-0.0026227
-0.00153383
-0.000399112
0.00078006
0.00200225
0.00326597
0.00456966
0.00591171
0.00729043
0.00870409
0.0101509
0.0116291
0.0131367
0.0146719
0.0162328
0.0178173
0.0194235
0.0210492
0.0226925
0.0243513
0.0260233
0.0277064
0.0293985
0.0310973
0.0328007
0.0345064
0.0362121
0.0379157
0.0396148
0.0413073
0.0429908
0.0446631
0.046322
0.0479651
0.0495905
0.0511957
0.0527787
0.0543373
0.0558693
0.0573727
0.0588453
0.0602852
0.0616903
0.0630587
0.0643885
0.0656779
0.0669251
0.0681283
0.0692859
0.0703963
0.071458
0.0724696
0.0734297
0.074337
0.0751904
0.0759889
0.0767314
0.0774171
0.0780453
0.0786153
0.0791265
0.0795787
0.0799715
0.0803048
0.0805786
0.0807931
0.0809485
0.0810454
0.0810844
0.0810662
0.0809917
0.0808622
0.0806789
0.0804433
0.0801571
0.0798222
0.0794407
0.0790147
0.0785469
0.0780399
0.0774966
0.0769201
0.0763139
0.0756814
0.0750264
0.0743531
0.0736656
0.0729685
0.0722663
0.0715641
0.0708667
0.0701796
0.069508
0.0688575
0.0682337
0.0676423
0.0670889
0.0665793
0.066119
0.0657137
0.0653689
0.0650897
0.064882
0.0647554
0.0647141
0.0033524
0.00320009
0.00298993
0.00271791
0.00238447
0.00199508
0.00155503
0.00106928
0.000542919
-1.89045e-05
-0.000610986
-0.00122814
-0.00186522
-0.00251715
-0.00317894
-0.00384568
-0.00451264
-0.00517523
-0.00582909
-0.00647006
-0.00709422
-0.00769784
-0.00827738
-0.0088295
-0.00935105
-0.00983914
-0.0102911
-0.0107045
-0.0110771
-0.0114067
-0.0116914
-0.0119295
-0.0121195
-0.0122599
-0.0123495
-0.0123874
-0.0123725
-0.0123042
-0.0121818
-0.0120049
-0.0117731
-0.0114863
-0.0111443
-0.0107471
-0.010295
-0.00978808
-0.0092268
-0.00861156
-0.00794289
-0.00722143
-0.0064479
-0.00562313
-0.00474803
-0.00382357
-0.00285081
-0.00183089
-0.000765024
0.000345521
0.00149941
0.00269524
0.00393157
0.00520689
0.00651962
0.00786813
0.00925073
0.0106657
0.0121112
0.0135855
0.0150868
0.016613
0.0181624
0.0197329
0.0213226
0.0229294
0.0245513
0.0261861
0.0278319
0.0294863
0.0311474
0.032813
0.0344808
0.0361488
0.0378146
0.0394761
0.0411311
0.0427774
0.0444127
0.046035
0.047642
0.0492316
0.0508016
0.0523499
0.0538743
0.0553729
0.0568436
0.0582843
0.059693
0.0610678
0.0624069
0.0637083
0.0649703
0.0661911
0.0673691
0.0685026
0.0695901
0.0706301
0.0716213
0.0725623
0.0734518
0.0742889
0.0750724
0.0758014
0.0764751
0.0770928
0.0776537
0.0781575
0.0786038
0.0789923
0.0793229
0.0795956
0.0798106
0.0799681
0.0800687
0.0801129
0.0801015
0.0800354
0.0799157
0.0797438
0.0795209
0.0792488
0.0789294
0.0785644
0.0781563
0.0777072
0.0772199
0.0766972
0.0761419
0.0755573
0.0749468
0.0743139
0.0736625
0.0729967
0.0723204
0.0716383
0.0709547
0.0702744
0.0696023
0.0689432
0.0683024
0.0676848
0.0670957
0.0665402
0.0660235
0.0655506
0.0651266
0.0647562
0.0644446
0.064197
0.0640165
0.0639013
0.0042577
0.00402242
0.00375036
0.00343154
0.00305904
0.0026379
0.00217312
0.00166898
0.00112991
0.000560512
-3.45859e-05
-0.00065073
-0.00128329
-0.00192764
-0.00257922
-0.00323357
-0.00388631
-0.00453326
-0.00517038
-0.00579386
-0.00640001
-0.00698535
-0.00754654
-0.00808045
-0.00858413
-0.00905486
-0.00949013
-0.00988762
-0.0102451
-0.0105607
-0.0108324
-0.0110587
-0.011238
-0.011369
-0.0114506
-0.0114817
-0.0114615
-0.0113893
-0.0112644
-0.0110864
-0.010855
-0.01057
-0.0102313
-0.00983891
-0.00939296
-0.00889369
-0.00834142
-0.00773658
-0.00707968
-0.00637134
-0.00561225
-0.00480322
-0.00394511
-0.00303888
-0.00208556
-0.00108624
-4.21056e-05
0.00104561
0.00217562
0.00334657
0.00455704
0.00580557
0.00709062
0.0084106
0.00976387
0.0111487
0.0125635
0.0140063
0.0154755
0.0169691
0.0184853
0.0200222
0.0215778
0.0231502
0.0247373
0.0263371
0.0279476
0.0295666
0.0311921
0.032822
0.0344542
0.0360865
0.0377167
0.0393428
0.0409625
0.0425738
0.0441744
0.0457622
0.0473352
0.0488912
0.050428
0.0519437
0.0534362
0.0549034
0.0563433
0.057754
0.0591335
0.0604799
0.0617915
0.0630662
0.0643026
0.0654987
0.066653
0.067764
0.06883
0.0698497
0.0708218
0.0717449
0.0726178
0.0734396
0.0742091
0.0749254
0.0755878
0.0761956
0.0767481
0.0772448
0.0776855
0.0780698
0.0783977
0.0786691
0.0788843
0.0790435
0.0791472
0.0791959
0.0791904
0.0791316
0.0790206
0.0788585
0.0786468
0.0783871
0.078081
0.0777306
0.0773379
0.0769051
0.0764348
0.0759296
0.0753924
0.0748261
0.074234
0.0736195
0.0729861
0.0723377
0.0716781
0.0710114
0.0703418
0.0696738
0.0690118
0.0683603
0.0677239
0.0671074
0.0665155
0.0659527
0.0654238
0.0649333
0.0644856
0.064085
0.0637362
0.063444
0.0632047
0.0630107
0.00522521
0.00490384
0.00456645
0.00419712
0.00378161
0.00332451
0.00283062
0.00230359
0.00174724
0.00116561
0.00056281
-5.70088e-05
-0.000689668
-0.00133099
-0.00197683
-0.00262311
-0.00326586
-0.00390124
-0.00452556
-0.00513527
-0.00572696
-0.00629737
-0.00684338
-0.00736206
-0.00785066
-0.00830665
-0.00872765
-0.00911145
-0.00945598
-0.00975933
-0.0100197
-0.0102357
-0.0104057
-0.0105285
-0.0106031
-0.0106285
-0.0106037
-0.0105282
-0.0104013
-0.0102226
-0.00999188
-0.00970885
-0.00937344
-0.00898568
-0.0085457
-0.00805372
-0.00751005
-0.00691509
-0.00626934
-0.00557341
-0.00482798
-0.00403381
-0.00319175
-0.00230272
-0.00136773
-0.000387845
0.000635801
0.001702
0.0028095
0.00395699
0.00514309
0.00636637
0.00762534
0.00891844
0.0102441
0.0116006
0.0129863
0.0143995
0.0158385
0.0173014
0.0187863
0.0202916
0.0218151
0.023355
0.0249094
0.0264762
0.0280535
0.0296392
0.0312313
0.0328277
0.0344263
0.0360251
0.0376219
0.0392146
0.0408013
0.0423796
0.0439476
0.0455031
0.0470441
0.0485686
0.0500744
0.0515595
0.053022
0.0544598
0.0558709
0.0572535
0.0586057
0.0599256
0.0612113
0.0624612
0.0636735
0.0648466
0.0659788
0.0670687
0.0681147
0.0691154
0.0700697
0.0709761
0.0718335
0.0726409
0.0733973
0.0741018
0.0747536
0.0753521
0.0758966
0.0763866
0.0768219
0.0772022
0.0775274
0.0777974
0.0780126
0.078173
0.0782792
0.0783318
0.0783313
0.0782788
0.0781752
0.0780217
0.0778197
0.0775706
0.0772762
0.0769382
0.0765586
0.0761397
0.0756838
0.0751934
0.0746712
0.0741201
0.0735431
0.0729434
0.0723243
0.0716895
0.0710425
0.0703871
0.0697273
0.0690671
0.0684106
0.067762
0.0671255
0.0665055
0.065906
0.0653314
0.0647858
0.0642733
0.0637976
0.0633624
0.0629724
0.062632
0.0623303
0.0620541
0.00624361
0.00583426
0.00542914
0.00500644
0.00454464
0.00404805
0.0035213
0.00296747
0.00238979
0.0017918
0.0011771
0.000549417
-8.75167e-05
-0.000729932
-0.00137408
-0.00201628
-0.00265292
-0.00328051
-0.00389565
-0.00449508
-0.00507562
-0.00563423
-0.00616803
-0.00667428
-0.00715046
-0.00759418
-0.0080032
-0.00837544
-0.00870892
-0.00900186
-0.00925261
-0.00945968
-0.00962175
-0.00973761
-0.0098062
-0.00982661
-0.00979803
-0.00971981
-0.00959141
-0.00941243
-0.00918256
-0.00890162
-0.00856953
-0.00818632
-0.0077521
-0.0072671
-0.00673161
-0.00614603
-0.00551085
-0.00482666
-0.00409411
-0.00331396
-0.00248702
-0.0016142
-0.000696473
0.000265127
0.00126949
0.00231545
0.00340177
0.0045272
0.00569038
0.00688992
0.00812436
0.00939218
0.0106918
0.0120217
0.0133802
0.0147655
0.0161761
0.0176101
0.0190657
0.0205411
0.0220346
0.023544
0.0250677
0.0266035
0.0281497
0.0297041
0.0312647
0.0328297
0.0343968
0.0359642
0.0375297
0.0390912
0.0406468
0.0421943
0.0437317
0.045257
0.0467682
0.0482631
0.0497399
0.0511965
0.0526309
0.0540412
0.0554255
0.0567819
0.0581086
0.0594036
0.0606654
0.061892
0.063082
0.0642335
0.0653452
0.0664154
0.0674428
0.0684259
0.0693635
0.0702544
0.0710974
0.0718914
0.0726356
0.0733291
0.073971
0.0745607
0.0750977
0.0755815
0.0760116
0.076388
0.0767105
0.076979
0.0771938
0.0773552
0.0774634
0.077519
0.0775229
0.0774756
0.0773784
0.0772322
0.0770383
0.0767983
0.0765137
0.0761862
0.0758177
0.0754104
0.0749664
0.0744882
0.0739783
0.0734393
0.0728743
0.0722861
0.0716779
0.071053
0.0704148
0.0697669
0.0691129
0.0684564
0.0678014
0.0671515
0.0665107
0.0658828
0.0652717
0.0646812
0.0641149
0.0635763
0.0630689
0.0625958
0.0621612
0.0617696
0.0614029
0.0610423
0.00730261
0.00680431
0.00632983
0.00585156
0.00534086
0.00480185
0.00423909
0.00365507
0.00305253
0.00243452
0.00180423
0.00116494
0.000519987
-0.000127252
-0.000773416
-0.00141518
-0.00204929
-0.00267256
-0.00328189
-0.00387424
-0.00444668
-0.00499642
-0.00552079
-0.00601727
-0.00648352
-0.0069173
-0.00731652
-0.00767919
-0.00800348
-0.00828771
-0.00853034
-0.00872998
-0.00888535
-0.00899533
-0.00905892
-0.00907525
-0.00904357
-0.00896326
-0.00883381
-0.00865485
-0.00842609
-0.00814736
-0.0078186
-0.00743983
-0.00701118
-0.00653286
-0.00600515
-0.00542847
-0.00480329
-0.00413017
-0.00340977
-0.00264281
-0.0018301
-0.000972516
-7.10019e-05
0.000873422
0.00185968
0.00288663
0.00395309
0.00505782
0.0061995
0.00737676
0.00858819
0.00983231
0.0111076
0.0124125
0.0137454
0.0151046
0.0164885
0.0178954
0.0193236
0.0207711
0.0222363
0.0237173
0.0252121
0.026719
0.028236
0.0297611
0.0312924
0.0328279
0.0343656
0.0359036
0.0374398
0.0389722
0.0404988
0.0420175
0.0435264
0.0450235
0.0465067
0.0479742
0.0494239
0.0508538
0.0522621
0.0536469
0.0550062
0.0563382
0.0576411
0.0589131
0.0601525
0.0613577
0.0625268
0.0636584
0.064751
0.065803
0.0668131
0.0677798
0.068702
0.0695785
0.0704081
0.0711897
0.0719226
0.0726058
0.0732385
0.0738201
0.07435
0.0748278
0.0752532
0.0756258
0.0759455
0.0762125
0.0764267
0.0765885
0.0766983
0.0767565
0.0767637
0.0767209
0.0766289
0.0764888
0.0763018
0.0760693
0.0757928
0.0754739
0.0751146
0.0747167
0.0742823
0.0738138
0.0733135
0.0727839
0.0722279
0.0716481
0.0710476
0.0704293
0.0697966
0.0691525
0.0685006
0.0678442
0.0671867
0.0665318
0.0658828
0.0652434
0.0646169
0.0640067
0.0634161
0.0628483
0.062306
0.0617918
0.0613101
0.060865
0.0604316
0.0599855
0.00839287
0.00780527
0.00726041
0.00672498
0.00616336
0.00557955
0.0049781
0.00436102
0.00373055
0.00308935
0.00244019
0.00178597
0.00112964
0.000474204
-0.000177337
-0.000822005
-0.00145686
-0.002079
-0.00268558
-0.00327381
-0.003841
-0.0043846
-0.00490215
-0.00539135
-0.00585
-0.00627603
-0.00666747
-0.00702247
-0.00733932
-0.00761647
-0.00785246
-0.00804599
-0.00819588
-0.00830105
-0.00836057
-0.00837363
-0.00833953
-0.00825769
-0.00812764
-0.00794903
-0.0077216
-0.0074452
-0.00711977
-0.00674535
-0.00632207
-0.00585013
-0.00532983
-0.00476157
-0.00414582
-0.00348314
-0.00277416
-0.00201959
-0.00122023
-0.000376929
0.000509384
0.00143772
0.00240702
0.00341618
0.00446405
0.0055494
0.00667096
0.00782739
0.0090173
0.0102392
0.0114917
0.0127733
0.0140822
0.0154171
0.0167761
0.0181577
0.0195601
0.0209817
0.0224205
0.0238748
0.0253428
0.0268226
0.0283123
0.0298101
0.031314
0.0328221
0.0343324
0.035843
0.0373519
0.0388571
0.0403567
0.0418487
0.043331
0.0448019
0.0462592
0.0477011
0.0491256
0.0505309
0.051915
0.053276
0.0546121
0.0559215
0.0572024
0.0584531
0.0596719
0.060857
0.062007
0.0631202
0.0641951
0.0652303
0.0662244
0.067176
0.068084
0.0689471
0.0697643
0.0705346
0.0712569
0.0719306
0.0725548
0.0731288
0.0736522
0.0741244
0.0745451
0.0749141
0.0752312
0.0754965
0.07571
0.0758719
0.0759827
0.0760428
0.0760528
0.0760135
0.0759257
0.0757905
0.0756091
0.0753827
0.0751127
0.0748008
0.0744487
0.0740582
0.0736313
0.0731701
0.072677
0.0721543
0.0716045
0.0710303
0.0704344
0.0698197
0.0691891
0.0685457
0.0678925
0.0672326
0.0665694
0.0659059
0.0652454
0.064591
0.0639457
0.0633127
0.0626948
0.0620946
0.0615147
0.0609571
0.0604262
0.0599259
0.0594246
0.0588925
0.00950584
0.00882913
0.00821335
0.00761964
0.00700555
0.00637503
0.00573268
0.00508009
0.00441909
0.00375193
0.00308104
0.00240894
0.00173823
0.00107155
0.000411578
-0.000239026
-0.000877602
-0.00150151
-0.00210815
-0.00269499
-0.00325958
-0.00379957
-0.00431275
-0.00479697
-0.00525021
-0.00567053
-0.0060561
-0.00640521
-0.00671629
-0.00698787
-0.00721862
-0.00740731
-0.00755284
-0.00765421
-0.00771055
-0.00772111
-0.00768525
-0.00760242
-0.00747219
-0.00729424
-0.00706835
-0.00679438
-0.00647228
-0.00610211
-0.00568399
-0.00521815
-0.00470488
-0.00414458
-0.00353772
-0.00288484
-0.00218657
-0.00144361
-0.00065674
0.000173203
0.00104531
0.00195861
0.00291209
0.00390465
0.00493517
0.00600246
0.00710525
0.00824225
0.00941209
0.0106134
0.0118446
0.0131043
0.014391
0.0157031
0.017039
0.018397
0.0197755
0.0211728
0.0225871
0.0240166
0.0254596
0.0269142
0.0283787
0.029851
0.0313295
0.0328121
0.0342969
0.0357821
0.0372657
0.0387457
0.0402202
0.0416874
0.0431451
0.0445917
0.046025
0.0474432
0.0488445
0.0502269
0.0515886
0.0529277
0.0542425
0.055531
0.0567917
0.0580227
0.0592224
0.0603892
0.0615215
0.0626177
0.0636764
0.0646961
0.0656755
0.0666133
0.0675082
0.0683591
0.0691649
0.0699247
0.0706374
0.0713023
0.0719186
0.0724856
0.0730029
0.0734699
0.0738863
0.0742518
0.0745664
0.0748298
0.0750424
0.0752042
0.0753156
0.0753771
0.0753892
0.0753526
0.0752681
0.0751367
0.0749596
0.0747379
0.074473
0.0741664
0.0738197
0.0734347
0.0730132
0.0725573
0.072069
0.0715507
0.0710046
0.0704333
0.0698393
0.0692253
0.0685939
0.0679481
0.0672905
0.0666242
0.0659521
0.0652769
0.0646017
0.0639293
0.0632623
0.0626036
0.0619556
0.0613207
0.0607009
0.060098
0.0595162
0.0589595
0.0583897
0.0577716
0.0106337
0.00986848
0.00918164
0.00852893
0.00786123
0.0071825
0.00649746
0.00580733
0.00511356
0.00441807
0.00372293
0.00303033
0.00234254
0.00166188
0.000990721
0.000331444
-0.000313546
-0.000941861
-0.00155114
-0.0021391
-0.00270352
-0.00324228
-0.00375334
-0.00423473
-0.00468457
-0.00510108
-0.00548257
-0.00582747
-0.00613433
-0.00640179
-0.00662861
-0.00681365
-0.00695589
-0.00705441
-0.00710842
-0.00711721
-0.0070802
-0.00699688
-0.00686687
-0.00668988
-0.00646571
-0.00619425
-0.00587548
-0.00550944
-0.0050963
-0.00463626
-0.00412965
-0.00357685
-0.00297833
-0.00233463
-0.00164638
-0.00091426
-0.00013904
0.000678454
0.00153733
0.00243665
0.0033754
0.00435253
0.00536692
0.00641741
0.00750277
0.00862171
0.00977291
0.010955
0.0121665
0.013406
0.014672
0.015963
0.0172774
0.0186135
0.0199698
0.0213446
0.0227361
0.0241427
0.0255625
0.0269938
0.0284348
0.0298837
0.0313385
0.0327975
0.0342588
0.0357205
0.0371807
0.0386374
0.0400889
0.0415331
0.0429682
0.0443923
0.0458035
0.0472
0.0485799
0.0499413
0.0512824
0.0526013
0.0538964
0.0551658
0.0564079
0.0576209
0.0588032
0.0599532
0.0610693
0.06215
0.0631938
0.0641994
0.0651654
0.0660905
0.0669735
0.0678133
0.0686087
0.0693589
0.0700628
0.0707197
0.0713288
0.0718894
0.0724011
0.0728632
0.0732756
0.0736378
0.0739498
0.0742115
0.074423
0.0745844
0.074696
0.0747583
0.0747718
0.0747372
0.0746551
0.0745266
0.0743527
0.0741345
0.0738732
0.0735704
0.0732275
0.0728462
0.0724283
0.0719755
0.07149
0.0709738
0.0704291
0.0698582
0.0692635
0.0686475
0.0680126
0.0673616
0.066697
0.0660213
0.0653374
0.0646478
0.0639551
0.0632619
0.0625707
0.0618838
0.0612034
0.0605317
0.0598701
0.0592201
0.0585863
0.0579724
0.0573339
0.0566302
0.0117695
0.0109166
0.0101588
0.00944669
0.00872456
0.00799648
0.00726732
0.00653798
0.00580956
0.00508367
0.00436208
0.00364666
0.00293939
0.0022423
0.00155748
0.000887074
0.000233241
-0.000401875
-0.00101616
-0.00160756
-0.00217407
-0.00271377
-0.00322479
-0.00370533
-0.00415365
-0.00456812
-0.0049472
-0.00528946
-0.00559354
-0.00585822
-0.00608234
-0.00626485
-0.00640481
-0.00650139
-0.00655385
-0.00656155
-0.00652396
-0.00644062
-0.00631119
-0.00613543
-0.00591316
-0.00564428
-0.00532881
-0.0049668
-0.00455842
-0.0041039
-0.00360357
-0.00305781
-0.0024671
-0.00183198
-0.00115305
-0.000431014
0.000333381
0.00113932
0.00198593
0.00287228
0.00379739
0.00476023
0.0057597
0.00679465
0.00786387
0.00896611