/*--------------------------------*- C++ -*----------------------------------*\
  =========                 |
  \\      /  F ield         | OpenFOAM: The Open Source CFD Toolbox
   \\    /   O peration     | Website:  https://openfoam.org
    \\  /    A nd           | Version:  7
     \\/     M anipulation  |
\*---------------------------------------------------------------------------*/
FoamFile
{
    version     2.0;
    format      ascii;
    class       surfaceScalarField;
    location    "0.5";
    object      phi;
}
// * * * * * * * * * * * * * * * * * * * * * * * * * * * * * * * * * * * * * //

dimensions      [0 3 -1 0 0 0 0];

internalField   nonuniform List<scalar> 
50880
(
6.03081e-12
-6.19469e-12
3.62447e-11
-3.01964e-11
8.11084e-11
-4.49128e-11
1.30782e-10
-4.96405e-11
1.78057e-10
-4.7254e-11
2.17943e-10
-3.99121e-11
2.47038e-10
-2.91173e-11
2.6303e-10
-1.59883e-11
2.64379e-10
-1.34018e-12
2.50119e-10
1.42634e-11
2.1969e-10
3.04271e-11
1.72831e-10
4.6856e-11
1.09505e-10
6.33233e-11
2.98472e-11
7.96563e-11
-6.58788e-11
9.57248e-11
-1.77309e-10
1.1143e-10
-3.04003e-10
1.26693e-10
-4.45457e-10
1.41454e-10
-6.01122e-10
1.55666e-10
-7.70411e-10
1.69292e-10
-9.5271e-10
1.82302e-10
-1.14738e-09
1.94674e-10
-1.35378e-09
2.06393e-10
-1.57123e-09
2.1745e-10
-1.79907e-09
2.27839e-10
-2.03662e-09
2.37553e-10
-2.28321e-09
2.46592e-10
-2.53817e-09
2.54955e-10
-2.80081e-09
2.62644e-10
-3.07048e-09
2.69664e-10
-3.34651e-09
2.76022e-10
-3.62823e-09
2.81725e-10
-3.91501e-09
2.86779e-10
-4.2062e-09
2.91192e-10
-4.50117e-09
2.94972e-10
-4.7993e-09
2.9813e-10
-5.09998e-09
3.00676e-10
-5.4026e-09
3.02621e-10
-5.70657e-09
3.03976e-10
-6.01133e-09
3.04752e-10
-6.31629e-09
3.04961e-10
-6.6209e-09
3.04615e-10
-6.92463e-09
3.03726e-10
-7.22693e-09
3.02306e-10
-7.5273e-09
3.00368e-10
-7.82522e-09
2.97924e-10
-8.12021e-09
2.94987e-10
-8.41178e-09
2.91569e-10
-8.69947e-09
2.87684e-10
-8.98281e-09
2.83344e-10
-9.26137e-09
2.78563e-10
-9.53473e-09
2.73352e-10
-9.80246e-09
2.67726e-10
-1.00642e-08
2.61697e-10
-1.03194e-08
2.55279e-10
-1.05679e-08
2.48484e-10
-1.08092e-08
2.41327e-10
-1.10431e-08
2.33819e-10
-1.1269e-08
2.25975e-10
-1.14868e-08
2.17807e-10
-1.16962e-08
2.09329e-10
-1.18967e-08
2.00555e-10
-1.20882e-08
1.91497e-10
-1.22704e-08
1.8217e-10
-1.2443e-08
1.72586e-10
-1.26057e-08
1.62759e-10
-1.27585e-08
1.52703e-10
-1.29009e-08
1.42432e-10
-1.30328e-08
1.3196e-10
-1.31541e-08
1.21301e-10
-1.32646e-08
1.10468e-10
-1.33641e-08
9.9475e-11
-1.34524e-08
8.8337e-11
-1.35295e-08
7.7068e-11
-1.35952e-08
6.56826e-11
-1.36494e-08
5.41955e-11
-1.3692e-08
4.26213e-11
-1.3723e-08
3.09748e-11
-1.37422e-08
1.92711e-11
-1.37498e-08
7.52511e-12
-1.37455e-08
-4.24779e-12
-1.37295e-08
-1.60323e-11
-1.37017e-08
-2.78128e-11
-1.36621e-08
-3.95737e-11
-1.36108e-08
-5.12992e-11
-1.35478e-08
-6.29733e-11
-1.34732e-08
-7.45798e-11
-1.33871e-08
-8.61024e-11
-1.32896e-08
-9.75248e-11
-1.31808e-08
-1.08831e-10
-1.30608e-08
-1.20004e-10
-1.29298e-08
-1.31027e-10
-1.27879e-08
-1.41883e-10
-1.26353e-08
-1.52557e-10
-1.24723e-08
-1.63029e-10
-1.2299e-08
-1.73285e-10
-1.21157e-08
-1.83306e-10
-1.19226e-08
-1.93075e-10
-1.172e-08
-2.02576e-10
-1.15083e-08
-2.11791e-10
-1.12876e-08
-2.20703e-10
-1.10583e-08
-2.29296e-10
-1.08207e-08
-2.37552e-10
-1.05753e-08
-2.45454e-10
-1.03223e-08
-2.52985e-10
-1.00621e-08
-2.60129e-10
-9.79527e-09
-2.66869e-10
-9.52208e-09
-2.73189e-10
-9.24301e-09
-2.79073e-10
-8.9585e-09
-2.84504e-10
-8.66903e-09
-2.89468e-10
-8.37509e-09
-2.93948e-10
-8.07716e-09
-2.9793e-10
-7.77576e-09
-3.01399e-10
-7.47142e-09
-3.0434e-10
-7.16468e-09
-3.06739e-10
-6.8561e-09
-3.08583e-10
-6.54624e-09
-3.09859e-10
-6.23568e-09
-3.10555e-10
-5.92502e-09
-3.10657e-10
-5.61487e-09
-3.10156e-10
-5.30583e-09
-3.09039e-10
-4.99853e-09
-3.07298e-10
-4.69361e-09
-3.04921e-10
-4.39171e-09
-3.01902e-10
-4.09347e-09
-2.98232e-10
-3.79957e-09
-2.93904e-10
-3.51066e-09
-2.88912e-10
-3.22741e-09
-2.83251e-10
-2.95049e-09
-2.76918e-10
-2.68058e-09
-2.6991e-10
-2.41835e-09
-2.62227e-10
-2.16449e-09
-2.53867e-10
-1.91965e-09
-2.44833e-10
-1.68452e-09
-2.3513e-10
-1.45976e-09
-2.24763e-10
-1.24601e-09
-2.13742e-10
-1.04394e-09
-2.02078e-10
-8.54153e-10
-1.89785e-10
-6.77271e-10
-1.76881e-10
-5.13877e-10
-1.63392e-10
-3.64529e-10
-1.49346e-10
-2.29749e-10
-1.34781e-10
-1.10011e-10
-1.19739e-10
-5.73516e-12
-1.04276e-10
8.27275e-11
-8.84619e-11
1.55111e-10
-7.23828e-11
2.11257e-10
-5.61465e-11
2.51148e-10
-3.98901e-11
2.7494e-10
-2.37908e-11
2.83021e-10
-8.07932e-12
2.76082e-10
6.94067e-12
2.55221e-10
2.08615e-11
2.22097e-10
3.31251e-11
1.79144e-10
4.29521e-11
1.29889e-10
4.92524e-11
7.93535e-11
5.05329e-11
3.4612e-11
4.47415e-11
5.32108e-12
2.92918e-11
5.32119e-12
3.01172e-11
-3.62923e-11
1.01239e-10
-1.01404e-10
1.9552e-10
-1.39212e-10
2.95883e-10
-1.50006e-10
3.87948e-10
-1.3934e-10
4.6051e-10
-1.12455e-10
5.05091e-10
-7.36677e-11
5.15478e-10
-2.63762e-11
4.87286e-10
2.6835e-11
4.17526e-10
8.40179e-11
3.04274e-10
1.43684e-10
1.46434e-10
2.04695e-10
-5.64279e-11
2.66178e-10
-3.04232e-10
3.27454e-10
-5.96498e-10
3.87989e-10
-9.3243e-10
4.47363e-10
-1.31098e-09
5.05246e-10
-1.7309e-09
5.61376e-10
-2.19078e-09
6.15547e-10
-2.68908e-09
6.67595e-10
-3.22416e-09
7.17389e-10
-3.79432e-09
7.64831e-10
-4.39778e-09
8.09845e-10
-5.0327e-09
8.52377e-10
-5.69725e-09
8.92386e-10
-6.38953e-09
9.29845e-10
-7.10768e-09
9.64738e-10
-7.84978e-09
9.97058e-10
-8.61395e-09
1.02681e-09
-9.39828e-09
1.05399e-09
-1.02009e-08
1.07864e-09
-1.10199e-08
1.10075e-09
-1.18535e-08
1.12037e-09
-1.26998e-08
1.13751e-09
-1.35571e-08
1.15221e-09
-1.44234e-08
1.1645e-09
-1.52972e-08
1.17442e-09
-1.61766e-08
1.18201e-09
-1.70599e-08
1.1873e-09
-1.79455e-08
1.19035e-09
-1.88317e-08
1.19118e-09
-1.9717e-08
1.18986e-09
-2.05997e-08
1.18641e-09
-2.14782e-08
1.1809e-09
-2.23512e-08
1.17337e-09
-2.32172e-08
1.16385e-09
-2.40746e-08
1.15242e-09
-2.49221e-08
1.1391e-09
-2.57584e-08
1.12396e-09
-2.65821e-08
1.10703e-09
-2.73919e-08
1.08838e-09
-2.81866e-08
1.06805e-09
-2.8965e-08
1.04609e-09
-2.97258e-08
1.02256e-09
-3.04681e-08
9.97495e-10
-3.11905e-08
9.70959e-10
-3.18922e-08
9.43001e-10
-3.25721e-08
9.13671e-10
-3.32291e-08
8.83021e-10
-3.38624e-08
8.51104e-10
-3.4471e-08
8.17971e-10
-3.50542e-08
7.83675e-10
-3.56109e-08
7.48269e-10
-3.61406e-08
7.11805e-10
-3.66423e-08
6.74337e-10
-3.71155e-08
6.35917e-10
-3.75594e-08
5.96601e-10
-3.79734e-08
5.56442e-10
-3.83569e-08
5.15494e-10
-3.87094e-08
4.73812e-10
-3.90304e-08
4.31451e-10
-3.93194e-08
3.88466e-10
-3.9576e-08
3.44914e-10
-3.97998e-08
3.00851e-10
-3.99904e-08
2.56334e-10
-4.01476e-08
2.1142e-10
-4.02712e-08
1.66168e-10
-4.03608e-08
1.20634e-10
-4.04165e-08
7.48793e-11
-4.04379e-08
2.8962e-11
-4.04251e-08
-1.70578e-11
-4.0378e-08
-6.31196e-11
-4.02967e-08
-1.09163e-10
-4.01811e-08
-1.55125e-10
-4.00315e-08
-2.00945e-10
-3.98479e-08
-2.46559e-10
-3.96305e-08
-2.91906e-10
-3.93797e-08
-3.3692e-10
-3.90957e-08
-3.81539e-10
-3.87788e-08
-4.25698e-10
-3.84295e-08
-4.69332e-10
-3.80482e-08
-5.12376e-10
-3.76353e-08
-5.54764e-10
-3.71914e-08
-5.9643e-10
-3.67171e-08
-6.37308e-10
-3.62131e-08
-6.77333e-10
-3.568e-08
-7.16436e-10
-3.51185e-08
-7.54552e-10
-3.45294e-08
-7.91615e-10
-3.39137e-08
-8.27557e-10
-3.32721e-08
-8.62312e-10
-3.26056e-08
-8.95815e-10
-3.19151e-08
-9.27998e-10
-3.12018e-08
-9.58796e-10
-3.04666e-08
-9.88145e-10
-2.97108e-08
-1.01598e-09
-2.89354e-08
-1.04223e-09
-2.81417e-08
-1.06685e-09
-2.73311e-08
-1.08975e-09
-2.65047e-08
-1.1109e-09
-2.56639e-08
-1.13021e-09
-2.48102e-08
-1.14764e-09
-2.3945e-08
-1.16313e-09
-2.30698e-08
-1.17662e-09
-2.21861e-08
-1.18805e-09
-2.12955e-08
-1.19737e-09
-2.03995e-08
-1.20453e-09
-1.94999e-08
-1.20948e-09
-1.85983e-08
-1.21218e-09
-1.76964e-08
-1.21257e-09
-1.67959e-08
-1.21061e-09
-1.58987e-08
-1.20627e-09
-1.50065e-08
-1.1995e-09
-1.41211e-08
-1.19028e-09
-1.32444e-08
-1.17857e-09
-1.23783e-08
-1.16434e-09
-1.15247e-08
-1.14757e-09
-1.06853e-08
-1.12824e-09
-9.86226e-09
-1.10633e-09
-9.05734e-09
-1.08184e-09
-8.2725e-09
-1.05475e-09
-7.50965e-09
-1.02507e-09
-6.77071e-09
-9.92811e-10
-6.05756e-09
-9.57977e-10
-5.3721e-09
-9.20595e-10
-4.71617e-09
-8.80695e-10
-4.09159e-09
-8.38321e-10
-3.50014e-09
-7.93527e-10
-2.94354e-09
-7.46382e-10
-2.42345e-09
-6.96971e-10
-1.94145e-09
-6.45397e-10
-1.499e-09
-5.91791e-10
-1.09747e-09
-5.36312e-10
-7.38055e-10
-4.79152e-10
-4.21785e-10
-4.20547e-10
-1.4946e-10
-3.60786e-10
7.83875e-11
-3.00228e-10
2.61563e-10
-2.39319e-10
4.0029e-10
-1.78615e-10
4.95316e-10
-1.18817e-10
5.48049e-10
-6.08152e-11
5.60737e-10
-5.75063e-12
5.367e-10
4.48977e-11
4.80628e-10
8.91983e-11
3.98965e-10
1.2462e-10
3.00342e-10
1.47879e-10
1.9603e-10
1.54847e-10
1.00181e-10
1.4059e-10
2.92735e-11
1.00201e-10
3.45954e-11
4.48463e-11
-8.11872e-11
1.39204e-10
-1.95705e-10
2.56511e-10
-2.56494e-10
3.75117e-10
-2.68674e-10
4.76804e-10
-2.41059e-10
5.46705e-10
-1.82334e-10
5.73079e-10
-1.00018e-10
5.46952e-10
-2.48271e-13
4.617e-10
1.12081e-10
3.12585e-10
2.33129e-10
9.64102e-11
3.59857e-10
-1.8878e-10
4.89884e-10
-5.43937e-10
6.21331e-10
-9.69203e-10
7.52715e-10
-1.46407e-09
8.82852e-10
-2.0275e-09
1.0108e-09
-2.65805e-09
1.13579e-09
-3.3539e-09
1.25723e-09
-4.11298e-09
1.37464e-09
-4.933e-09
1.48761e-09
-5.81146e-09
1.59585e-09
-6.74574e-09
1.6991e-09
-7.73309e-09
1.79719e-09
-8.77068e-09
1.88997e-09
-9.85562e-09
1.97733e-09
-1.0985e-08
2.05919e-09
-1.21557e-08
2.13551e-09
-1.33649e-08
2.20625e-09
-1.46096e-08
2.27142e-09
-1.58866e-08
2.33101e-09
-1.7193e-08
2.38506e-09
-1.85258e-08
2.43359e-09
-1.98821e-08
2.47666e-09
-2.12589e-08
2.51431e-09
-2.26533e-08
2.54661e-09
-2.40624e-08
2.57363e-09
-2.54835e-08
2.59545e-09
-2.69136e-08
2.61214e-09
-2.83501e-08
2.62379e-09
-2.97902e-08
2.63048e-09
-3.12314e-08
2.63232e-09
-3.26709e-08
2.62939e-09
-3.41063e-08
2.62179e-09
-3.5535e-08
2.60963e-09
-3.69546e-08
2.593e-09
-3.83628e-08
2.57202e-09
-3.97571e-08
2.54677e-09
-4.11354e-08
2.51738e-09
-4.24954e-08
2.48394e-09
-4.3835e-08
2.44658e-09
-4.5152e-08
2.40539e-09
-4.64444e-08
2.36048e-09
-4.77103e-08
2.31198e-09
-4.89477e-08
2.25999e-09
-5.01549e-08
2.20462e-09
-5.13299e-08
2.14598e-09
-5.24711e-08
2.0842e-09
-5.35768e-08
2.01937e-09
-5.46454e-08
1.95163e-09
-5.56754e-08
1.88108e-09
-5.66652e-08
1.80783e-09
-5.76136e-08
1.73201e-09
-5.8519e-08
1.65374e-09
-5.93803e-08
1.57312e-09
-6.01963e-08
1.49027e-09
-6.09657e-08
1.40533e-09
-6.16875e-08
1.31839e-09
-6.23606e-08
1.22959e-09
-6.29842e-08
1.13905e-09
-6.35572e-08
1.04688e-09
-6.4079e-08
9.53206e-10
-6.45487e-08
8.58157e-10
-6.49656e-08
7.61855e-10
-6.53292e-08
6.64424e-10
-6.56389e-08
5.65991e-10
-6.58941e-08
4.66683e-10
-6.60946e-08
3.66629e-10
-6.62399e-08
2.65957e-10
-6.63298e-08
1.648e-10
-6.63642e-08
6.32876e-11
-6.63428e-08
-3.84464e-11
-6.62656e-08
-1.40268e-10
-6.61327e-08
-2.42043e-10
-6.59442e-08
-3.43633e-10
-6.57003e-08
-4.44902e-10
-6.54011e-08
-5.45711e-10
-6.50471e-08
-6.45921e-10
-6.46386e-08
-7.4539e-10
-6.41762e-08
-8.43977e-10
-6.36604e-08
-9.4154e-10
-6.30918e-08
-1.03794e-09
-6.24711e-08
-1.13302e-09
-6.17992e-08
-1.22665e-09
-6.1077e-08
-1.31867e-09
-6.03054e-08
-1.40895e-09
-5.94854e-08
-1.49733e-09
-5.86181e-08
-1.58367e-09
-5.77049e-08
-1.66782e-09
-5.67468e-08
-1.74963e-09
-5.57454e-08
-1.82897e-09
-5.47021e-08
-1.90567e-09
-5.36183e-08
-1.97961e-09
-5.24957e-08
-2.05062e-09
-5.13359e-08
-2.11857e-09
-5.01407e-08
-2.18331e-09
-4.8912e-08
-2.24471e-09
-4.76516e-08
-2.30262e-09
-4.63616e-08
-2.35689e-09
-4.50439e-08
-2.40741e-09
-4.37008e-08
-2.45402e-09
-4.23344e-08
-2.49661e-09
-4.0947e-08
-2.53503e-09
-3.9541e-08
-2.56916e-09
-3.81187e-08
-2.59889e-09
-3.66827e-08
-2.62408e-09
-3.52354e-08
-2.64463e-09
-3.37795e-08
-2.66041e-09
-3.23177e-08
-2.67133e-09
-3.08526e-08
-2.67729e-09
-2.9387e-08
-2.67818e-09
-2.79237e-08
-2.67391e-09
-2.64655e-08
-2.6644e-09
-2.50155e-08
-2.64956e-09
-2.35764e-08
-2.62933e-09
-2.21514e-08
-2.60365e-09
-2.07432e-08
-2.57245e-09
-1.93551e-08
-2.53568e-09
-1.79901e-08
-2.49331e-09
-1.66511e-08
-2.44532e-09
-1.53412e-08
-2.39167e-09
-1.40636e-08
-2.33238e-09
-1.28212e-08
-2.26744e-09
-1.16172e-08
-2.19689e-09
-1.04544e-08
-2.12075e-09
-9.33588e-09
-2.0391e-09
-8.26455e-09
-1.95202e-09
-7.24327e-09
-1.85961e-09
-6.2748e-09
-1.762e-09
-5.36181e-09
-1.65936e-09
-4.50687e-09
-1.55191e-09
-3.71239e-09
-1.43988e-09
-2.98058e-09
-1.3236e-09
-2.31348e-09
-1.20341e-09
-1.71284e-09
-1.07979e-09
-1.18012e-09
-9.53265e-10
-7.16397e-10
-8.24507e-10
-3.223e-10
-6.94326e-10
2.0945e-12
-5.63715e-10
2.5738e-10
-4.33901e-10
4.44971e-10
-3.06408e-10
5.67294e-10
-1.83135e-10
6.28014e-10
-6.64671e-11
6.3232e-10
4.05932e-11
5.8726e-10
1.34256e-10
5.02126e-10
2.0975e-10
3.88846e-10
2.61158e-10
2.62329e-10
2.81363e-10
1.40614e-10
2.62301e-10
4.47223e-11
1.96092e-10
7.93189e-11
4.9712e-11
-1.30909e-10
1.50364e-10
-2.96326e-10
2.69287e-10
-3.75427e-10
3.81311e-10
-3.80703e-10
4.65633e-10
-3.25376e-10
5.05181e-10
-2.21879e-10
4.86226e-10
-8.10625e-11
3.97989e-10
8.79892e-11
2.32236e-10
2.77836e-10
-1.70894e-11
4.82453e-10
-3.54222e-10
6.96983e-10
-7.81871e-10
9.17526e-10
-1.30149e-09
1.14094e-09
-1.91348e-09
1.36471e-09
-2.61742e-09
1.58678e-09
-3.41214e-09
1.80551e-09
-4.2959e-09
2.01956e-09
-5.26651e-09
2.22785e-09
-6.32135e-09
2.42948e-09
-7.45751e-09
2.62377e-09
-8.6718e-09
2.81013e-09
-9.9608e-09
2.98811e-09
-1.1321e-08
3.15735e-09
-1.27485e-08
3.31757e-09
-1.42398e-08
3.46856e-09
-1.57907e-08
3.61015e-09
-1.73975e-08
3.74225e-09
-1.9056e-08
3.86478e-09
-2.07623e-08
3.97771e-09
-2.25123e-08
4.08104e-09
-2.43021e-08
4.1748e-09
-2.61275e-08
4.25903e-09
-2.79846e-08
4.3338e-09
-2.98695e-08
4.39919e-09
-3.17782e-08
4.4553e-09
-3.37068e-08
4.50225e-09
-3.56515e-08
4.54015e-09
-3.76085e-08
4.56913e-09
-3.95741e-08
4.58935e-09
-4.15445e-08
4.60094e-09
-4.35163e-08
4.60406e-09
-4.54858e-08
4.59888e-09
-4.74495e-08
4.58556e-09
-4.94042e-08
4.56427e-09
-5.13463e-08
4.53518e-09
-5.32728e-08
4.49848e-09
-5.51804e-08
4.45434e-09
-5.70659e-08
4.40295e-09
-5.89265e-08
4.34449e-09
-6.07591e-08
4.27916e-09
-6.25608e-08
4.20714e-09
-6.4329e-08
4.12862e-09
-6.60608e-08
4.0438e-09
-6.77537e-08
3.95288e-09
-6.94051e-08
3.85604e-09
-7.10126e-08
3.75348e-09
-7.25738e-08
3.64541e-09
-7.40865e-08
3.53202e-09
-7.55484e-08
3.41352e-09
-7.69574e-08
3.29009e-09
-7.83115e-08
3.16196e-09
-7.96088e-08
3.02931e-09
-8.08474e-08
2.89235e-09
-8.20256e-08
2.7513e-09
-8.31417e-08
2.60634e-09
-8.4194e-08
2.45771e-09
-8.51812e-08
2.30559e-09
-8.61019e-08
2.15021e-09
-8.69546e-08
1.99178e-09
-8.77382e-08
1.8305e-09
-8.84516e-08
1.6666e-09
-8.90937e-08
1.50028e-09
-8.96637e-08
1.33178e-09
-9.01606e-08
1.1613e-09
-9.05836e-08
9.89077e-10
-9.09323e-08
8.15323e-10
-9.12059e-08
6.40268e-10
-9.14041e-08
4.6414e-10
-9.15265e-08
2.87166e-10
-9.15728e-08
1.09579e-10
-9.15428e-08
-6.83892e-11
-9.14366e-08
-2.46503e-10
-9.12541e-08
-4.24525e-10
-9.09955e-08
-6.02216e-10
-9.06611e-08
-7.79336e-10
-9.02512e-08
-9.55641e-10
-8.97662e-08
-1.13089e-09
-8.92068e-08
-1.30483e-09
-8.85735e-08
-1.47722e-09
-8.78672e-08
-1.6478e-09
-8.70888e-08
-1.81634e-09
-8.62393e-08
-1.98256e-09
-8.53197e-08
-2.14623e-09
-8.43313e-08
-2.30709e-09
-8.32754e-08
-2.46487e-09
-8.21534e-08
-2.61934e-09
-8.09668e-08
-2.77022e-09
-7.97173e-08
-2.91727e-09
-7.84068e-08
-3.06023e-09
-7.70369e-08
-3.19884e-09
-7.56097e-08
-3.33284e-09
-7.41273e-08
-3.46199e-09
-7.25919e-08
-3.58603e-09
-7.10058e-08
-3.70471e-09
-6.93713e-08
-3.81778e-09
-6.7691e-08
-3.925e-09
-6.59675e-08
-4.02612e-09
-6.42035e-08
-4.12089e-09
-6.24018e-08
-4.20909e-09
-6.05654e-08
-4.29047e-09
-5.86972e-08
-4.36482e-09
-5.68003e-08
-4.4319e-09
-5.4878e-08
-4.49149e-09
-5.29335e-08
-4.54339e-09
-5.09702e-08
-4.58739e-09
-4.89915e-08
-4.62329e-09
-4.7001e-08
-4.65089e-09
-4.50023e-08
-4.67002e-09
-4.29991e-08
-4.68049e-09
-4.09952e-08
-4.68215e-09
-3.89942e-08
-4.67483e-09
-3.70002e-08
-4.6584e-09
-3.50171e-08
-4.63272e-09
-3.30488e-08
-4.59766e-09
-3.10993e-08
-4.55313e-09
-2.91727e-08
-4.49903e-09
-2.72731e-08
-4.43529e-09
-2.54046e-08
-4.36184e-09
-2.35712e-08
-4.27865e-09
-2.17772e-08
-4.1857e-09
-2.00266e-08
-4.08299e-09
-1.83235e-08
-3.97055e-09
-1.66719e-08
-3.84844e-09
-1.50759e-08
-3.71674e-09
-1.35395e-08
-3.57557e-09
-1.20664e-08
-3.4251e-09
-1.06605e-08
-3.26552e-09
-9.32538e-09
-3.0971e-09
-8.06459e-09
-2.92015e-09
-6.88145e-09
-2.73505e-09
-5.77906e-09
-2.54227e-09
-4.76029e-09
-2.34237e-09
-3.82768e-09
-2.13602e-09
-2.98342e-09
-1.92404e-09
-2.22928e-09
-1.70741e-09
-1.5665e-09
-1.48729e-09
-9.95715e-10
-1.26511e-09
-5.16815e-10
-1.04261e-09
-1.28821e-10
-8.21895e-10
1.70305e-10
-6.05536e-10
3.83865e-10
-3.96698e-10
5.16672e-10
-1.99273e-10
5.75332e-10
-1.80621e-11
5.68567e-10
1.41025e-10
5.07559e-10
2.70758e-10
4.06304e-10
3.62412e-10
2.81952e-10
4.05714e-10
1.55141e-10
3.89111e-10
5.05787e-11
3.00654e-10
1.29897e-10
4.75227e-11
-1.78433e-10
1.40276e-10
-3.89135e-10
2.42834e-10
-4.77989e-10
3.27796e-10
-4.6563e-10
3.72765e-10
-3.70327e-10
3.59376e-10
-2.08496e-10
2.72723e-10
5.58166e-12
1.00904e-10
2.59809e-10
-1.65355e-10
5.441e-10
-5.33032e-10
8.50128e-10
-1.00712e-09
1.17106e-09
-1.59092e-09
1.50132e-09
-2.28629e-09
1.83632e-09
-3.0939e-09
2.17232e-09
-4.0134e-09
2.50627e-09
-5.04355e-09
2.83567e-09
-6.18244e-09
3.15846e-09
-7.42754e-09
3.47295e-09
-8.77583e-09
3.77778e-09
-1.02239e-08
4.07181e-09
-1.17679e-08
4.35415e-09
-1.34038e-08
4.62404e-09
-1.51274e-08
4.88091e-09
-1.69341e-08
5.12428e-09
-1.88193e-08
5.35379e-09
-2.07784e-08
5.56918e-09
-2.28064e-08
5.77023e-09
-2.48984e-08
5.95683e-09
-2.70496e-08
6.12891e-09
-2.9255e-08
6.28642e-09
-3.15096e-08
6.4294e-09
-3.38084e-08
6.55789e-09
-3.61466e-08
6.67197e-09
-3.85192e-08
6.77177e-09
-4.09213e-08
6.8574e-09
-4.33481e-08
6.92904e-09
-4.57948e-08
6.98686e-09
-4.82567e-08
7.03105e-09
-5.07292e-08
7.06182e-09
-5.32076e-08
7.07938e-09
-5.56875e-08
7.08397e-09
-5.81645e-08
7.07582e-09
-6.06341e-08
7.05519e-09
-6.30922e-08
7.02233e-09
-6.55345e-08
6.97751e-09
-6.7957e-08
6.92099e-09
-7.03557e-08
6.85304e-09
-7.27267e-08
6.77395e-09
-7.50662e-08
6.68401e-09
-7.73705e-08
6.58348e-09
-7.96361e-08
6.47267e-09
-8.18593e-08
6.35187e-09
-8.40369e-08
6.22137e-09
-8.61655e-08
6.08147e-09
-8.82419e-08
5.93247e-09
-9.02631e-08
5.77467e-09
-9.22261e-08
5.60838e-09
-9.41279e-08
5.4339e-09
-9.5966e-08
5.25154e-09
-9.77375e-08
5.06161e-09
-9.94399e-08
4.86442e-09
-1.01071e-07
4.66028e-09
-1.02628e-07
4.44952e-09
-1.04109e-07
4.23243e-09
-1.05512e-07
4.00935e-09
-1.06835e-07
3.7806e-09
-1.08076e-07
3.54649e-09
-1.09233e-07
3.30735e-09
-1.10305e-07
3.06352e-09
-1.1129e-07
2.81531e-09
-1.12186e-07
2.56306e-09
-1.12993e-07
2.3071e-09
-1.13709e-07
2.04777e-09
-1.14333e-07
1.78542e-09
-1.14864e-07
1.52037e-09
-1.15302e-07
1.25299e-09
-1.15645e-07
9.83605e-10
-1.15894e-07
7.12579e-10
-1.16047e-07
4.4026e-10
-1.16104e-07
1.67008e-10
-1.16066e-07
-1.0682e-10
-1.15932e-07
-3.80861e-10
-1.15701e-07
-6.54749e-10
-1.15375e-07
-9.28116e-10
-1.14954e-07
-1.20059e-09
-1.14438e-07
-1.4718e-09
-1.13828e-07
-1.74137e-09
-1.13123e-07
-2.00891e-09
-1.12327e-07
-2.27405e-09
-1.11438e-07
-2.5364e-09
-1.10459e-07
-2.79558e-09
-1.0939e-07
-3.0512e-09
-1.08234e-07
-3.30287e-09
-1.0699e-07
-3.5502e-09
-1.05662e-07
-3.79279e-09
-1.04252e-07
-4.03026e-09
-1.0276e-07
-4.26221e-09
-1.01189e-07
-4.48825e-09
-9.95408e-08
-4.70799e-09
-9.78186e-08
-4.92103e-09
-9.60245e-08
-5.12698e-09
-9.4161e-08
-5.32546e-09
-9.2231e-08
-5.51607e-09
-9.02373e-08
-5.69844e-09
-8.81829e-08
-5.87218e-09
-8.60709e-08
-6.03692e-09
-8.39048e-08
-6.19227e-09
-8.16878e-08
-6.33789e-09
-7.94235e-08
-6.47339e-09
-7.71155e-08
-6.59843e-09
-7.47677e-08
-6.71266e-09
-7.23838e-08
-6.81574e-09
-6.9968e-08
-6.90733e-09
-6.75243e-08
-6.98711e-09
-6.50569e-08
-7.05477e-09
-6.25702e-08
-7.11001e-09
-6.00685e-08
-7.15254e-09
-5.75565e-08
-7.18208e-09
-5.50386e-08
-7.19836e-09
-5.25196e-08
-7.20115e-09
-5.00043e-08
-7.1902e-09
-4.74973e-08
-7.16531e-09
-4.50038e-08
-7.12627e-09
-4.25285e-08
-7.07292e-09
-4.00766e-08
-7.0051e-09
-3.76529e-08
-6.92267e-09
-3.52627e-08
-6.82554e-09
-3.29109e-08
-6.71362e-09
-3.06027e-08
-6.58687e-09
-2.83431e-08
-6.44527e-09
-2.61373e-08
-6.28884e-09
-2.39902e-08
-6.11765e-09
-2.19068e-08
-5.9318e-09
-1.98921e-08
-5.73143e-09
-1.79509e-08
-5.51677e-09
-1.60879e-08
-5.28808e-09
-1.43078e-08
-5.04569e-09
-1.26148e-08
-4.79004e-09
-1.10133e-08
-4.52163e-09
-9.5073e-09
-4.24108e-09
-8.10043e-09
-3.94914e-09
-6.79611e-09
-3.6467e-09
-5.59731e-09
-3.33482e-09
-4.50657e-09
-3.01478e-09
-3.52588e-09
-2.68809e-09
-2.65658e-09
-2.35658e-09
-1.89928e-09
-2.02241e-09
-1.25369e-09
-1.68821e-09
-7.18475e-10
-1.35711e-09
-2.91086e-10
-1.03292e-09
3.24607e-11
-7.20244e-10
2.57827e-10
-4.24639e-10
3.92614e-10
-1.52851e-10
4.4666e-10
8.69773e-11
4.32347e-10
2.85072e-10
3.64936e-10
4.29823e-10
2.62964e-10
5.07686e-10
1.48766e-10
5.03309e-10
4.94587e-11
3.99962e-10
1.79354e-10
4.04189e-11
-2.18857e-10
1.14273e-10
-4.63013e-10
1.85837e-10
-5.49547e-10
2.26936e-10
-5.06711e-10
2.14508e-10
-3.5789e-10
1.29587e-10
-1.23576e-10
-4.33313e-11
1.78499e-10
-3.16754e-10
5.33233e-10
-7.00547e-10
9.27893e-10
-1.20224e-09
1.35182e-09
-1.82733e-09
1.79614e-09
-2.57951e-09
2.25349e-09
-3.46094e-09
2.71775e-09
-4.47247e-09
3.18385e-09
-5.6138e-09
3.6476e-09
-6.88366e-09
4.10554e-09
-8.27998e-09
4.55478e-09
-9.79997e-09
4.99295e-09
-1.14403e-08
5.41807e-09
-1.3197e-08
5.82854e-09
-1.50659e-08
6.22303e-09
-1.70423e-08
6.60045e-09
-1.91213e-08
6.95993e-09
-2.12978e-08
7.30076e-09
-2.35664e-08
7.6224e-09
-2.59216e-08
7.92441e-09
-2.83579e-08
8.20649e-09
-3.08694e-08
8.46841e-09
-3.34506e-08
8.71004e-09
-3.60955e-08
8.93132e-09
-3.87983e-08
9.13223e-09
-4.15533e-08
9.31283e-09
-4.43545e-08
9.47321e-09
-4.71962e-08
9.6135e-09
-5.00727e-08
9.73389e-09
-5.29782e-08
9.83457e-09
-5.59072e-08
9.91578e-09
-5.88539e-08
9.97777e-09
-6.18129e-08
1.00208e-08
-6.47787e-08
1.00452e-08
-6.77461e-08
1.00513e-08
-7.07097e-08
1.00394e-08
-7.36644e-08
1.00099e-08
-7.66051e-08
9.96302e-09
-7.95268e-08
9.89924e-09
-8.24247e-08
9.81889e-09
-8.5294e-08
9.72238e-09
-8.81302e-08
9.61007e-09
-9.09285e-08
9.48238e-09
-9.36848e-08
9.3397e-09
-9.63945e-08
9.18243e-09
-9.90537e-08
9.011e-09
-1.01658e-07
8.82582e-09
-1.04204e-07
8.6273e-09
-1.06687e-07
8.41587e-09
-1.09105e-07
8.19196e-09
-1.11452e-07
7.956e-09
-1.13727e-07
7.70841e-09
-1.15925e-07
7.44964e-09
-1.18043e-07
7.18013e-09
-1.20079e-07
6.90031e-09
-1.2203e-07
6.61064e-09
-1.23892e-07
6.31155e-09
-1.25663e-07
6.00349e-09
-1.2734e-07
5.68693e-09
-1.28922e-07
5.36231e-09
-1.30406e-07
5.03009e-09
-1.31789e-07
4.69074e-09
-1.3307e-07
4.34472e-09
-1.34247e-07
3.9925e-09
-1.35319e-07
3.63455e-09
-1.36283e-07
3.27135e-09
-1.37139e-07
2.90337e-09
-1.37884e-07
2.53109e-09
-1.38519e-07
2.15501e-09
-1.39042e-07
1.77562e-09
-1.39452e-07
1.3934e-09
-1.39748e-07
1.00887e-09
-1.3993e-07
6.22508e-10
-1.39998e-07
2.34836e-10
-1.39951e-07
-1.53638e-10
-1.3979e-07
-5.42398e-10
-1.39513e-07
-9.30927e-10
-1.39123e-07
-1.3187e-09
-1.38618e-07
-1.70519e-09
-1.38e-07
-2.08987e-09
-1.37269e-07
-2.4722e-09
-1.36427e-07
-2.85164e-09
-1.35473e-07
-3.22766e-09
-1.3441e-07
-3.5997e-09
-1.33238e-07
-3.96723e-09
-1.31959e-07
-4.32969e-09
-1.30576e-07
-4.68652e-09
-1.29089e-07
-5.03719e-09
-1.27501e-07
-5.38112e-09
-1.25813e-07
-5.71777e-09
-1.24029e-07
-6.04659e-09
-1.2215e-07
-6.367e-09
-1.20179e-07
-6.67846e-09
-1.1812e-07
-6.98042e-09
-1.15975e-07
-7.27232e-09
-1.13747e-07
-7.55361e-09
-1.11439e-07
-7.82375e-09
-1.09055e-07
-8.0822e-09
-1.06599e-07
-8.32841e-09
-1.04074e-07
-8.56186e-09
-1.01484e-07
-8.78201e-09
-9.88337e-08
-8.98836e-09
-9.61267e-08
-9.1804e-09
-9.33675e-08
-9.35761e-09
-9.05606e-08
-9.51952e-09
-8.77107e-08
-9.66565e-09
-8.48225e-08
-9.79553e-09
-8.19009e-08
-9.9087e-09
-7.8951e-08
-1.00047e-08
-7.59778e-08
-1.00832e-08
-7.29866e-08
-1.01437e-08
-6.99828e-08
-1.01859e-08
-6.69719e-08
-1.02093e-08
-6.39593e-08
-1.02137e-08
-6.09508e-08
-1.01987e-08
-5.7952e-08
-1.01641e-08
-5.49688e-08
-1.01095e-08
-5.2007e-08
-1.00347e-08
-4.90725e-08
-9.93958e-09
-4.61713e-08
-9.8239e-09
-4.33093e-08
-9.68753e-09
-4.04925e-08
-9.53039e-09
-3.7727e-08
-9.35242e-09
-3.50186e-08
-9.15363e-09
-3.23734e-08
-8.93405e-09
-2.97972e-08
-8.69381e-09
-2.7296e-08
-8.43307e-09
-2.48753e-08
-8.15208e-09
-2.25409e-08
-7.85115e-09
-2.02983e-08
-7.5307e-09
-1.81528e-08
-7.19125e-09
-1.61094e-08
-6.83341e-09
-1.41731e-08
-6.45795e-09
-1.23484e-08
-6.06579e-09
-1.06395e-08
-5.658e-09
-9.05031e-09
-5.23589e-09
-7.58414e-09
-4.80099e-09
-6.24382e-09
-4.35511e-09
-5.0315e-09
-3.90041e-09
-3.94861e-09
-3.43946e-09
-2.99573e-09
-2.97529e-09
-2.17243e-09
-2.51151e-09
-1.4771e-09
-2.05244e-09
-9.06837e-10
-1.60319e-09
-4.57156e-10
-1.16992e-09
-1.21834e-10
-7.59959e-10
1.07365e-10
-3.82049e-10
2.4095e-10
-4.66078e-11
2.91983e-10
2.34036e-10
2.76419e-10
4.45388e-10
2.13521e-10
5.70584e-10
1.26475e-10
5.90354e-10
4.34305e-11
4.83008e-10
2.22783e-10
2.99619e-11
-2.48813e-10
7.6627e-11
-5.09654e-10
1.05682e-10
-5.78604e-10
8.94065e-11
-4.90442e-10
4.88427e-12
-2.73369e-10
-1.66862e-10
4.81761e-11
-4.41453e-10
4.53092e-10
-8.31575e-10
9.23352e-10
-1.34732e-09
1.44363e-09
-1.99648e-09
2.00097e-09
-2.78477e-09
2.58444e-09
-3.71613e-09
3.18484e-09
-4.79286e-09
3.79448e-09
-6.01592e-09
4.4069e-09
-7.38499e-09
5.01668e-09
-8.89877e-09
5.61932e-09
-1.0555e-08
6.21103e-09
-1.23507e-08
6.78865e-09
-1.42822e-08
7.34956e-09
-1.63452e-08
7.89156e-09
-1.85351e-08
8.41287e-09
-2.08466e-08
8.91198e-09
-2.32744e-08
9.38768e-09
-2.58126e-08
9.83899e-09
-2.84553e-08
1.02651e-08
-3.11964e-08
1.06655e-08
-3.40295e-08
1.10396e-08
-3.69482e-08
1.13871e-08
-3.99459e-08
1.17078e-08
-4.30162e-08
1.20016e-08
-4.61523e-08
1.22684e-08
-4.93477e-08
1.25082e-08
-5.25958e-08
1.27213e-08
-5.58899e-08
1.29076e-08
-5.92235e-08
1.30675e-08
-6.259e-08
1.32011e-08
-6.5983e-08
1.33088e-08
-6.93961e-08
1.33909e-08
-7.28229e-08
1.34477e-08
-7.62573e-08
1.34796e-08
-7.96931e-08
1.34871e-08
-8.31242e-08
1.34705e-08
-8.65447e-08
1.34304e-08
-8.99488e-08
1.33671e-08
-9.33307e-08
1.32812e-08
-9.66848e-08
1.31731e-08
-1.00006e-07
1.30433e-08
-1.03288e-07
1.28924e-08
-1.06527e-07
1.27209e-08
-1.09716e-07
1.25294e-08
-1.12852e-07
1.23182e-08
-1.15929e-07
1.20881e-08
-1.18943e-07
1.18396e-08
-1.21889e-07
1.15732e-08
-1.24762e-07
1.12894e-08
-1.27559e-07
1.09889e-08
-1.30276e-07
1.06723e-08
-1.32907e-07
1.03401e-08
-1.35451e-07
9.99282e-09
-1.37902e-07
9.63117e-09
-1.40257e-07
9.25569e-09
-1.42513e-07
8.86698e-09
-1.44667e-07
8.46564e-09
-1.46716e-07
8.05227e-09
-1.48657e-07
7.62749e-09
-1.50486e-07
7.1919e-09
-1.52202e-07
6.74612e-09
-1.53802e-07
6.29077e-09
-1.55284e-07
5.82648e-09
-1.56646e-07
5.35387e-09
-1.57885e-07
4.87358e-09
-1.59e-07
4.38625e-09
-1.59989e-07
3.89252e-09
-1.60851e-07
3.39304e-09
-1.61584e-07
2.88846e-09
-1.62188e-07
2.37945e-09
-1.62661e-07
1.86667e-09
-1.63003e-07
1.35078e-09
-1.63213e-07
8.3247e-10
-1.63291e-07
3.12414e-10
-1.63236e-07
-2.087e-10
-1.63048e-07
-7.30182e-10
-1.62727e-07
-1.25133e-09
-1.62275e-07
-1.77145e-09
-1.6169e-07
-2.28983e-09
-1.60974e-07
-2.80575e-09
-1.60128e-07
-3.3185e-09
-1.59152e-07
-3.82737e-09
-1.58048e-07
-4.33161e-09
-1.56817e-07
-4.83051e-09
-1.55461e-07
-5.32332e-09
-1.53982e-07
-5.80932e-09
-1.5238e-07
-6.28776e-09
-1.5066e-07
-6.7579e-09
-1.48822e-07
-7.219e-09
-1.46869e-07
-7.67031e-09
-1.44805e-07
-8.1111e-09
-1.42631e-07
-8.54061e-09
-1.40351e-07
-8.95811e-09
-1.37969e-07
-9.36285e-09
-1.35487e-07
-9.75411e-09
-1.3291e-07
-1.01311e-08
-1.3024e-07
-1.04932e-08
-1.27483e-07
-1.08396e-08
-1.24642e-07
-1.11696e-08
-1.21721e-07
-1.14825e-08
-1.18726e-07
-1.17776e-08
-1.1566e-07
-1.20542e-08
-1.12529e-07
-1.23116e-08
-1.09337e-07
-1.25492e-08
-1.0609e-07
-1.27663e-08
-1.02794e-07
-1.29623e-08
-9.94527e-08
-1.31365e-08
-9.6073e-08
-1.32884e-08
-9.26603e-08
-1.34174e-08
-8.92205e-08
-1.3523e-08
-8.57598e-08
-1.36045e-08
-8.22841e-08
-1.36615e-08
-7.87999e-08
-1.36935e-08
-7.53135e-08
-1.37001e-08
-7.18313e-08
-1.36809e-08
-6.83599e-08
-1.36354e-08
-6.4906e-08
-1.35634e-08
-6.14762e-08
-1.34645e-08
-5.80774e-08
-1.33384e-08
-5.47162e-08
-1.31851e-08
-5.13996e-08
-1.30042e-08
-4.81343e-08
-1.27957e-08
-4.49271e-08
-1.25595e-08
-4.1785e-08
-1.22958e-08
-3.87146e-08
-1.20045e-08
-3.57226e-08
-1.16858e-08
-3.28157e-08
-1.134e-08
-3.00003e-08
-1.09674e-08
-2.72829e-08
-1.05686e-08
-2.46695e-08
-1.01441e-08
-2.21662e-08
-9.69457e-09
-1.97786e-08
-9.22096e-09
-1.75122e-08
-8.7243e-09
-1.53722e-08
-8.20584e-09
-1.33631e-08
-7.66708e-09
-1.14892e-08
-7.10978e-09
-9.75421e-09
-6.536e-09
-8.16112e-09
-5.9482e-09
-6.7123e-09
-5.34924e-09
-5.40926e-09
-4.7425e-09
-4.25257e-09
-4.13198e-09
-3.24172e-09
-3.52236e-09
-2.37496e-09
-2.91919e-09
-1.64913e-09
-2.32902e-09
-1.05948e-09
-1.75957e-09
-5.99464e-10
-1.21998e-09
-2.60517e-10
-7.21e-10
-3.18179e-11
-2.75308e-10
9.99695e-11
1.02248e-10
1.51015e-10
3.94342e-10
1.40744e-10
5.80856e-10
9.24068e-11
6.3869e-10
3.39913e-11
5.41427e-10
2.56773e-10
1.72519e-11
-2.66055e-10
3.06316e-11
-5.23011e-10
8.35163e-12
-5.56329e-10
-7.5963e-11
-4.06139e-10
-2.44412e-10
-1.04921e-10
-5.15468e-10
3.19236e-10
-9.04438e-10
8.42064e-10
-1.42384e-09
1.44275e-09
-2.08368e-09
2.10347e-09
-2.89173e-09
2.80902e-09
-3.85375e-09
3.54646e-09
-4.97371e-09
4.30479e-09
-6.25393e-09
5.0747e-09
-7.69535e-09
5.84831e-09
-9.29762e-09
6.61896e-09
-1.10593e-08
7.38102e-09
-1.2978e-08
8.12974e-09
-1.50505e-08
8.86114e-09
-1.72728e-08
9.57187e-09
-1.96404e-08
1.02591e-08
-2.21481e-08
1.09205e-08
-2.47903e-08
1.15542e-08
-2.75611e-08
1.21585e-08
-3.04542e-08
1.27321e-08
-3.3463e-08
1.3274e-08
-3.65809e-08
1.37833e-08
-3.98007e-08
1.42594e-08
-4.31155e-08
1.47019e-08
-4.6518e-08
1.51103e-08
-5.0001e-08
1.54845e-08
-5.3557e-08
1.58244e-08
-5.71788e-08
1.61301e-08
-6.08591e-08
1.64015e-08
-6.45903e-08
1.66388e-08
-6.83652e-08
1.68424e-08
-7.21766e-08
1.70125e-08
-7.60172e-08
1.71494e-08
-7.98798e-08
1.72535e-08
-8.37574e-08
1.73253e-08
-8.76429e-08
1.73652e-08
-9.15296e-08
1.73738e-08
-9.54106e-08
1.73515e-08
-9.92792e-08
1.7299e-08
-1.03129e-07
1.72168e-08
-1.06953e-07
1.71055e-08
-1.10746e-07
1.69658e-08
-1.14501e-07
1.67983e-08
-1.18212e-07
1.66035e-08
-1.21873e-07
1.63823e-08
-1.25479e-07