/*--------------------------------*- C++ -*----------------------------------*\
  =========                 |
  \\      /  F ield         | OpenFOAM: The Open Source CFD Toolbox
   \\    /   O peration     | Website:  https://openfoam.org
    \\  /    A nd           | Version:  7
     \\/     M anipulation  |
\*---------------------------------------------------------------------------*/
FoamFile
{
    version     2.0;
    format      ascii;
    class       volScalarField;
    location    "0.275";
    object      p;
}
// * * * * * * * * * * * * * * * * * * * * * * * * * * * * * * * * * * * * * //

dimensions      [0 2 -2 0 0 0 0];

internalField   nonuniform List<scalar> 
25600
(
9.58652e-08
0.000111699
0.000140213
3.18838e-05
-0.000221668
-0.000616335
-0.00114102
-0.00178126
-0.00252152
-0.0033466
-0.00424198
-0.00519407
-0.00619028
-0.00721897
-0.00826942
-0.00933179
-0.010397
-0.0114569
-0.0125039
-0.013531
-0.0145319
-0.0155008
-0.0164324
-0.017322
-0.0181652
-0.018958
-0.0196968
-0.0203785
-0.0210001
-0.0215591
-0.0220533
-0.0224805
-0.0228391
-0.0231276
-0.0233446
-0.0234892
-0.0235604
-0.0235577
-0.0234806
-0.0233287
-0.023102
-0.0228004
-0.0224243
-0.0219738
-0.0214494
-0.0208518
-0.0201816
-0.0194397
-0.0186271
-0.0177447
-0.0167937
-0.0157754
-0.0146912
-0.0135423
-0.0123304
-0.0110571
-0.00972408
-0.00833303
-0.00688581
-0.00538432
-0.00383053
-0.00222645
-0.00057416
0.00112418
0.00286635
0.00465013
0.0064732
0.00833321
0.0102278
0.0121544
0.0141106
0.016094
0.0181018
0.0201315
0.0221806
0.0242463
0.0263259
0.0284167
0.0305161
0.0326212
0.0347293
0.0368375
0.0389432
0.0410435
0.0431355
0.0452165
0.0472837
0.0493343
0.0513654
0.0533744
0.0553583
0.0573145
0.0592402
0.0611328
0.0629895
0.0648078
0.066585
0.0683187
0.0700061
0.0716451
0.073233
0.0747677
0.0762468
0.0776681
0.0790296
0.0803292
0.0815649
0.0827349
0.0838374
0.0848709
0.0858337
0.0867245
0.0875419
0.0882847
0.0889521
0.089543
0.0900567
0.0904927
0.0908505
0.0911298
0.0913306
0.091453
0.0914973
0.0914639
0.0913536
0.0911673
0.090906
0.0905713
0.0901647
0.089688
0.0891435
0.0885335
0.0878606
0.0871281
0.0863391
0.0854973
0.0846068
0.0836719
0.0826975
0.0816888
0.0806515
0.0795917
0.0785161
0.0774319
0.0763471
0.0752699
0.0742097
0.0731763
0.0721803
0.0712333
0.0703477
0.0695365
0.0688139
0.0681942
0.0676918
0.0673198
0.0670877
0.0669972
0.0670374
0.0671527
-0.000111511
1.36105e-07
4.26919e-06
-0.000116799
-0.000359079
-0.00072082
-0.00119537
-0.00177233
-0.00243972
-0.00318515
-0.00399641
-0.00486169
-0.00576978
-0.00671015
-0.00767292
-0.00864894
-0.00962976
-0.0106075
-0.0115751
-0.0125257
-0.0134532
-0.0143522
-0.0152173
-0.016044
-0.0168279
-0.0175652
-0.0182522
-0.0188859
-0.0194633
-0.0199819
-0.0204393
-0.0208335
-0.0211629
-0.0214257
-0.0216208
-0.021747
-0.0218033
-0.0217893
-0.0217042
-0.0215477
-0.0213196
-0.02102
-0.0206489
-0.0202066
-0.0196934
-0.01911
-0.0184569
-0.0177349
-0.0169448
-0.0160877
-0.0151646
-0.0141767
-0.0131252
-0.0120115
-0.0108372
-0.00960356
-0.00831234
-0.00696518
-0.00556384
-0.00411014
-0.00260595
-0.00105322
0.000546044
0.00218977
0.00387583
0.00560206
0.00736625
0.0091661
0.0109993
0.0128635
0.0147563
0.0166752
0.0186178
0.0205815
0.0225639
0.0245623
0.0265741
0.0285968
0.0306276
0.0326639
0.0347031
0.0367424
0.0387791
0.0408106
0.042834
0.0448467
0.0468461
0.0488292
0.0507936
0.0527364
0.0546551
0.0565469
0.0584092
0.0602395
0.0620351
0.0637935
0.0655122
0.0671889
0.068821
0.0704062
0.0719422
0.0734268
0.0748578
0.0762332
0.0775508
0.0788088
0.0800054
0.0811387
0.082207
0.083209
0.084143
0.0850078
0.0858021
0.0865249
0.0871752
0.0877523
0.0882554
0.088684
0.0890379
0.0893167
0.0895205
0.0896494
0.0897037
0.0896841
0.0895913
0.0894262
0.0891899
0.088884
0.0885099
0.0880697
0.0875654
0.0869994
0.0863744
0.0856935
0.0849598
0.0841771
0.0833492
0.0824805
0.0815756
0.0806397
0.0796782
0.0786971
0.0777027
0.0767021
0.0757027
0.0747124
0.0737398
0.0727941
0.0718851
0.0710232
0.0702193
0.0694849
0.0688316
0.0682711
0.0678144
0.0674708
0.0672456
0.0671388
0.0671525
0.0672679
-0.000140188
-3.66406e-06
5.42045e-07
-0.000121775
-0.000354074
-0.000693301
-0.00113394
-0.00166727
-0.00228318
-0.00297118
-0.00372068
-0.00452119
-0.00536266
-0.00623545
-0.00713048
-0.00803924
-0.00895377
-0.00986666
-0.010771
-0.0116606
-0.0125293
-0.0133718
-0.0141832
-0.0149588
-0.0156945
-0.0163864
-0.0170311
-0.0176254
-0.0181664
-0.0186516
-0.0190787
-0.0194457
-0.0197508
-0.0199924
-0.0201692
-0.0202801
-0.0203241
-0.0203005
-0.0202087
-0.0200484
-0.0198192
-0.0195211
-0.0191543
-0.0187188
-0.018215
-0.0176434
-0.0170045
-0.0162992
-0.015528
-0.0146921
-0.0137924
-0.0128301
-0.0118062
-0.0107221
-0.00957928
-0.00837909
-0.00712309
-0.0058129
-0.00445022
-0.00303678
-0.0015744
-6.49536e-05
0.0014896
0.00308727
0.00472601
0.00640371
0.00811821
0.00986732
0.0116488
0.0134603
0.0152995
0.0171641
0.0190517
0.0209598
0.0228859
0.0248275
0.0267822
0.0287473
0.0307204
0.0326987
0.0346798
0.0366609
0.0386395
0.040613
0.0425786
0.0445338
0.046476
0.0484025
0.0503106
0.0521978
0.0540615
0.0558992
0.0577082
0.059486
0.0612303
0.0629384
0.064608
0.0662368
0.0678224
0.0693625
0.070855
0.0722977
0.0736884
0.0750252
0.0763062
0.0775294
0.0786931
0.0797957
0.0808355
0.0818111
0.082721
0.0835641
0.0843392
0.0850453
0.0856814
0.0862469
0.0867412
0.0871637
0.0875142
0.0877926
0.0879988
0.0881331
0.0881959
0.0881877
0.0881093
0.0879617
0.087746
0.0874638
0.0871166
0.0867062
0.086235
0.0857051
0.0851193
0.0844805
0.0837919
0.0830572
0.0822801
0.0814649
0.080616
0.0797386
0.0788378
0.0779193
0.0769895
0.0760548
0.0751223
0.0741997
0.0732948
0.0724162
0.071573
0.0707746
0.0700308
0.0693518
0.0687476
0.0682282
0.0678028
0.0674791
0.0672617
0.0671523
0.0671662
0.0673082
-3.20927e-05
0.000117546
0.000123249
1.03432e-06
-0.000225346
-0.000550775
-0.00096955
-0.00147341
-0.00205335
-0.00269998
-0.00340381
-0.00415546
-0.00494574
-0.00576585
-0.00660739
-0.00746243
-0.00832352
-0.00918367
-0.0100363
-0.0108755
-0.0116954
-0.012491
-0.0132573
-0.01399
-0.014685
-0.0153385
-0.0159472
-0.0165079
-0.0170178
-0.0174745
-0.0178756
-0.0182191
-0.0185033
-0.0187266
-0.0188876
-0.0189852
-0.0190185
-0.0189867
-0.0188891
-0.0187254
-0.0184952
-0.0181986
-0.0178354
-0.0174059
-0.0169103
-0.0163491
-0.0157228
-0.0150321
-0.0142777
-0.0134604
-0.0125813
-0.0116414
-0.0106419
-0.00958392
-0.00846888
-0.00729817
-0.00607325
-0.0047957
-0.00346715
-0.00208928
-0.00066383
0.000807357
0.0023224
0.00387936
0.00547626
0.00711105
0.00878162
0.0104859
0.0122215
0.0139865
0.0157784
0.0175949
0.0194338
0.0212926
0.023169
0.0250605
0.0269646
0.0288789
0.0308009
0.032728
0.0346577
0.0365875
0.0385148
0.040437
0.0423517
0.0442561
0.0461478
0.0480242
0.0498828
0.051721
0.0535363
0.0553262
0.0570882
0.0588199
0.0605189
0.0621828
0.0638092
0.0653959
0.0669406
0.0684412
0.0698954
0.0713012
0.0726565
0.0739595
0.0752083
0.076401
0.077536
0.0786117
0.0796265
0.080579
0.0814679
0.082292
0.0830503
0.0837417
0.0843655
0.0849209
0.0854074
0.0858246
0.0861722
0.0864501
0.0866584
0.0867973
0.0868672
0.0868688
0.0868028
0.0866702
0.0864723
0.0862103
0.085886
0.0855013
0.0850581
0.0845589
0.0840064
0.0834033
0.0827529
0.0820586
0.0813241
0.0805537
0.0797516
0.0789227
0.0780721
0.0772052
0.0763281
0.0754469
0.0745683
0.0736996
0.0728481
0.0720219
0.0712293
0.0704789
0.0697797
0.0691408
0.0685711
0.0680796
0.0676747
0.0673637
0.0671516
0.0670425
0.0670595
0.0672183
0.000220731
0.000359816
0.000355996
0.000227944
1.4808e-06
-0.000317002
-0.000721496
-0.00120415
-0.00175667
-0.00237059
-0.00303735
-0.00374843
-0.00449551
-0.00527051
-0.00606571
-0.00687375
-0.00768767
-0.00850089
-0.00930725
-0.010101
-0.0108768
-0.0116296
-0.0123548
-0.0130481
-0.0137056
-0.0143236
-0.0148989
-0.0154285
-0.0159095
-0.0163396
-0.0167164
-0.017038
-0.0173026
-0.0175087
-0.0176549
-0.0177401
-0.0177633
-0.0177237
-0.0176207
-0.0174538
-0.0172229
-0.0169276
-0.016568
-0.0161443
-0.0156566
-0.0151054
-0.0144911
-0.0138144
-0.013076
-0.0122767
-0.0114174
-0.0104991
-0.00952288
-0.00848999
-0.00740169
-0.0062593
-0.00506428
-0.00381812
-0.0025224
-0.00117873
0.000211188
0.00164556
0.00312258
0.00464037
0.006197
0.00779048
0.00941877
0.0110798
0.0127714
0.0144915
0.0162379
0.0180082
0.0198002
0.0216116
0.0234401
0.0252833
0.0271388
0.0290042
0.030877
0.0327548
0.0346352
0.0365156
0.0383935
0.0402665
0.0421321
0.0439878
0.045831
0.0476594
0.0494703
0.0512614
0.0530302
0.0547743
0.0564913
0.0581788
0.0598344
0.0614558
0.0630409
0.0645872
0.0660928
0.0675554
0.068973
0.0703435
0.071665
0.0729357
0.0741537
0.0753172
0.0764248
0.0774747
0.0784656
0.0793961
0.0802649
0.081071
0.0818131
0.0824906
0.0831025
0.0836483
0.0841273
0.0845394
0.0848841
0.0851615
0.0853717
0.0855148
0.0855915
0.0856022
0.0855477
0.0854292
0.0852477
0.0850046
0.0847017
0.0843407
0.0839237
0.083453
0.0829312
0.0823611
0.0817458
0.0810887
0.0803934
0.0796639
0.0789044
0.0781195
0.0773142
0.0764937
0.0756637
0.07483
0.073999
0.0731775
0.0723723
0.0715909
0.0708411
0.0701306
0.0694677
0.0688605
0.0683174
0.0678462
0.0674549
0.0671506
0.0669386
0.0668246
0.0668345
0.0669873
0.000614415
0.000721724
0.000695899
0.000554054
0.000320284
1.46583e-06
-0.000396286
-0.000865571
-0.00139873
-0.00198805
-0.00262577
-0.00330417
-0.00401565
-0.00475285
-0.00550865
-0.00627625
-0.00704916
-0.00782126
-0.00858672
-0.00934012
-0.0100764
-0.0107907
-0.0114788
-0.0121364
-0.0127598
-0.0133455
-0.0138903
-0.0143912
-0.0148457
-0.0152512
-0.0156055
-0.0159069
-0.0161533
-0.0163435
-0.0164759
-0.0165495
-0.0165634
-0.0165166
-0.0164086
-0.0162389
-0.0160073
-0.0157134
-0.0153573
-0.0149391
-0.0144591
-0.0139174
-0.0133147
-0.0126514
-0.0119283
-0.0111461
-0.0103056
-0.00940796
-0.0084541
-0.00744517
-0.0063824
-0.0052671
-0.00410065
-0.0028845
-0.00162015
-0.000309188
0.00104673
0.0024459
0.00388655
0.00536687
0.00688496
0.00843892
0.0100268
0.0116465
0.013296
0.0149731
0.0166758
0.0184019
0.0201491
0.0219152
0.0236979
0.0254949
0.0273039
0.0291225
0.0309483
0.0327791
0.0346122
0.0364454
0.0382762
0.0401022
0.0419209
0.04373
0.045527
0.0473094
0.0490749
0.0508211
0.0525456
0.054246
0.05592
0.0575653
0.0591795
0.0607606
0.0623062
0.0638142
0.0652824
0.0667089
0.0680917
0.0694286
0.070718
0.0719579
0.0731466
0.0742825
0.075364
0.0763895
0.0773577
0.0782673
0.079117
0.0799058
0.0806328
0.0812969
0.0818976
0.0824341
0.0829061
0.0833132
0.0836551
0.0839319
0.0841437
0.0842907
0.0843735
0.0843925
0.0843488
0.0842431
0.0840768
0.0838512
0.0835679
0.0832288
0.0828358
0.0823912
0.0818976
0.0813576
0.0807743
0.080151
0.0794912
0.0787986
0.0780774
0.0773321
0.0765672
0.0757878
0.0749993
0.0742072
0.0734175
0.0726365
0.0718707
0.071127
0.0704123
0.0697341
0.0690997
0.0685166
0.0679923
0.0675342
0.0671494
0.0668451
0.0666266
0.0665004
0.0664913
0.0666171
0.00113857
0.00119709
0.00113789
0.000974055
0.000725457
0.000398892
3.85533e-07
-0.000463138
-0.00098468
-0.00155719
-0.0021736
-0.00282692
-0.00351021
-0.00421677
-0.00494003
-0.00567372
-0.00641184
-0.00714864
-0.0078787
-0.00859692
-0.0092985
-0.0099789
-0.0106339
-0.0112597
-0.0118526
-0.0124092
-0.0129264
-0.0134015
-0.0138318
-0.014215
-0.0145489
-0.0148317
-0.0150617
-0.0152372
-0.0153571
-0.0154201
-0.0154254
-0.0153721
-0.0152596
-0.0150875
-0.0148553
-0.0145629
-0.0142102
-0.0137974
-0.0133246
-0.012792
-0.0122002
-0.0115497
-0.0108411
-0.0100751
-0.00925261
-0.00837449
-0.00744178
-0.00645556
-0.005417
-0.00432739
-0.00318804
-0.00200034
-0.00076576
0.000514167
0.00183784
0.0032036
0.00460974
0.0060545
0.00753603
0.00905249
0.0106019
0.0121824
0.0137919
0.0154284
0.0170897
0.0187738
0.0204784
0.0222015
0.0239408
0.025694
0.0274588
0.0292331
0.0310144
0.0328004
0.0345888
0.0363772
0.0381634
0.0399448
0.0417192
0.0434841
0.0452373
0.0469763
0.0486988
0.0504025
0.052085
0.0537441
0.0553775
0.0569829
0.0585581
0.0601009
0.0616093
0.063081
0.0645141
0.0659065
0.0672564
0.0685617
0.0698207
0.0710317
0.0721928
0.0733026
0.0743595
0.075362
0.0763088
0.0771987
0.0780305
0.0788031
0.0795156
0.0801673
0.0807573
0.0812851
0.0817503
0.0821526
0.0824918
0.0827679
0.082981
0.0831315
0.0832197
0.0832464
0.0832122
0.0831183
0.0829658
0.082756
0.0824906
0.0821713
0.0818
0.081379
0.0809108
0.080398
0.0798434
0.0792503
0.0786221
0.0779624
0.0772751
0.0765645
0.075835
0.0750914
0.0743387
0.0735822
0.0728275
0.0720805
0.0713472
0.0706339
0.0699473
0.0692938
0.0686805
0.068114
0.0676012
0.0671488
0.0667636
0.0664523
0.0662203
0.066074
0.0660347
0.0661166
0.00177933
0.00177609
0.00167377
0.00148026
0.00120962
0.000868268
0.000462049
-2.72694e-06
-0.000519689
-0.00108243
-0.00168456
-0.00231971
-0.00298158
-0.00366404
-0.00436107
-0.00506691
-0.00577598
-0.00648296
-0.00718279
-0.00787068
-0.00854212
-0.00919282
-0.00981884
-0.0104164
-0.0109822
-0.0115128
-0.0120054
-0.0124573
-0.0128658
-0.0132289
-0.0135443
-0.0138103
-0.0140252
-0.0141875
-0.014296
-0.0143495
-0.014347
-0.0142879
-0.0141714
-0.0139971
-0.0137646
-0.0134738
-0.0131245
-0.0127168
-0.0122509
-0.011727
-0.0111457
-0.0105073
-0.0098124
-0.00906182
-0.0082563
-0.00739673
-0.00648407
-0.00551937
-0.00450377
-0.0034385
-0.00232483
-0.0011641
4.22641e-05
0.00129277
0.00258587
0.00391996
0.00529339
0.00670443
0.0081513
0.00963219
0.0111452
0.0126885
0.0142601
0.0158579
0.01748
0.0191243
0.0207887
0.022471
0.0241691
0.0258807
0.0276038
0.029336
0.0310751
0.0328188
0.0345648
0.0363109
0.0380547
0.039794
0.0415264
0.0432496
0.0449613
0.0466592
0.0483411
0.0500046
0.0516475
0.0532675
0.0548625
0.0564303
0.0579686
0.0594754
0.0609487
0.0623862
0.0637861
0.0651465
0.0664653
0.0677409
0.0689713
0.0701549
0.0712901
0.0723753
0.0734091
0.07439
0.0753167
0.076188
0.0770029
0.0777603
0.0784592
0.079099
0.079679
0.0801986
0.0806573
0.081055
0.0813915
0.0816667
0.0818809
0.0820344
0.0821275
0.0821609
0.0821355
0.0820521
0.081912
0.0817165
0.0814672
0.0811657
0.0808139
0.0804142
0.0799687
0.07948
0.0789511
0.0783848
0.0777845
0.0771537
0.0764961
0.0758158
0.0751169
0.0744041
0.0736819
0.0729554
0.0722299
0.0715107
0.0708036
0.0701144
0.069449
0.0688136
0.0682144
0.0676576
0.0671496
0.0666963
0.0663041
0.065979
0.0657265
0.0655527
0.0654736
0.0654985
0.00252211
0.00244752
0.00229421
0.00206424
0.00176502
0.00140249
0.000982199
0.000509817
-8.94173e-06
-0.0005683
-0.00116248
-0.00178573
-0.00243233
-0.00309667
-0.00377328
-0.00445681
-0.00514216
-0.00582439
-0.00649879
-0.0071609
-0.00780647
-0.00843152
-0.00903227
-0.00960519
-0.010147
-0.0106547
-0.0111254
-0.0115565
-0.0119457
-0.0122907
-0.0125895
-0.0128404
-0.0130418
-0.0131922
-0.0132904
-0.0133353
-0.0133259
-0.0132616
-0.0131416
-0.0129655
-0.0127329
-0.0124437
-0.0120977
-0.0116951
-0.0112358
-0.0107203
-0.0101488
-0.00952194
-0.00884016
-0.00810419
-0.00731479
-0.0064728
-0.00557913
-0.00463483
-0.00364098
-0.00259876
-0.00150941
-0.000374221
0.000805407
0.00202804
0.00329219
0.00459629
0.00593872
0.00731781
0.00873184
0.010179
0.0116576
0.0131656
0.0147013
0.0162626
0.0178475
0.0194541
0.0210803
0.022724
0.0243831
0.0260554
0.0277389
0.0294313
0.0311305
0.0328342
0.0345401
0.0362462
0.03795
0.0396494
0.0413421
0.0430258
0.0446984
0.0463575
0.048001
0.0496265
0.051232
0.0528153
0.0543741
0.0559063
0.0574099
0.0588827
0.0603228
0.0617282
0.0630969
0.064427
0.0657167
0.0669642
0.0681677
0.0693257
0.0704365
0.0714986
0.0725106
0.0734711
0.0743789
0.0752329
0.0760318
0.0767748
0.077461
0.0780896
0.0786601
0.0791718
0.0796244
0.0800177
0.0803514
0.0806257
0.0808407
0.0809966
0.081094
0.0811334
0.0811157
0.0810418
0.0809129
0.0807301
0.0804951
0.0802096
0.0798753
0.0794943
0.079069
0.0786019
0.0780955
0.0775528
0.076977
0.0763714
0.0757396
0.0750853
0.0744126
0.0737257
0.0730291
0.0723275
0.0716257
0.0709288
0.070242
0.0695708
0.0689206
0.0682971
0.0677058
0.0671526
0.0666431
0.0661828
0.0657775
0.0654325
0.0651532
0.0649452
0.0648183
0.0647765
0.00335269
0.00319994
0.00298946
0.00271733
0.00238384
0.00199445
0.00155441
0.0010687
0.000542389
-1.9357e-05
-0.000611346
-0.00122839
-0.00186531
-0.00251702
-0.00317851
-0.00384489
-0.00451146
-0.00517367
-0.00582715
-0.00646773
-0.00709149
-0.00769466
-0.00827369
-0.00882527
-0.0093463
-0.00983389
-0.0102853
-0.0106982
-0.0110701
-0.0113991
-0.0116832
-0.0119207
-0.01211
-0.0122498
-0.0123388
-0.012376
-0.0123606
-0.0122917
-0.0121687
-0.0119911
-0.0117588
-0.0114713
-0.0111286
-0.0107308
-0.010278
-0.0097704
-0.0092084
-0.00859245
-0.00792309
-0.00720098
-0.00642684
-0.00560148
-0.00472581
-0.00380081
-0.00282753
-0.00180713
-0.000740776
0.000370242
0.00152459
0.00272087
0.00395763
0.00523335
0.00654646
0.00789534
0.00927831
0.0106937
0.0121396
0.0136143
0.015116
0.0166427
0.0181925
0.0197634
0.0213535
0.0229607
0.024583
0.0262182
0.0278643
0.0295191
0.0311806
0.0328464
0.0345145
0.0361827
0.0378488
0.0395106
0.0411658
0.0428124
0.044448
0.0460706
0.0476778
0.0492677
0.0508379
0.0523865
0.0539112
0.05541
0.0568809
0.0583218
0.0597308
0.0611058
0.0624452
0.0637469
0.0650092
0.0662303
0.0674086
0.0685425
0.0696304
0.0706708
0.0716624
0.0726039
0.0734939
0.0743315
0.0751155
0.075845
0.0765191
0.0771372
0.0776987
0.078203
0.0786497
0.0790387
0.0793697
0.0796429
0.0798583
0.0800164
0.0801174
0.0801621
0.0801512
0.0800857
0.0799665
0.0797951
0.0795729
0.0793014
0.0789825
0.0786182
0.0782106
0.0777623
0.0772756
0.0767535
0.0761988
0.0756148
0.075005
0.0743727
0.073722
0.0730567
0.0723811
0.0716994
0.0710163
0.0703365
0.0696648
0.0690061
0.0683656
0.0677483
0.0671593
0.066604
0.0660874
0.0656145
0.0651904
0.06482
0.0645083
0.0642605
0.0640796
0.0639639
0.00425772
0.00402207
0.00374975
0.0034308
0.00305824
0.00263705
0.00217226
0.00166814
0.00112913
0.0005598
-3.51922e-05
-0.000651194
-0.00128355
-0.00192762
-0.00257887
-0.00323283
-0.00388521
-0.00453179
-0.00516854
-0.0057916
-0.00639732
-0.00698218
-0.00754285
-0.00807625
-0.00857943
-0.00904966
-0.0094844
-0.00988131
-0.0102382
-0.0105531
-0.0108242
-0.0110498
-0.0112285
-0.0113589
-0.0114399
-0.0114704
-0.0114496
-0.0113768
-0.0112513
-0.0110727
-0.0108408
-0.0105551
-0.0102158
-0.0098227
-0.00937607
-0.0088761
-0.00832312
-0.00771758
-0.00706
-0.00635102
-0.00559133
-0.00478171
-0.00392304
-0.00301628
-0.00206245
-0.00106264
-1.80199e-05
0.00107018
0.00220064
0.00337203
0.00458293
0.00583186
0.0071173
0.00843765
0.0097913
0.0111766
0.0125917
0.014035
0.0155046
0.0169986
0.0185153
0.0200526
0.0216086
0.0231814
0.0247689
0.0263691
0.0279799
0.0295993
0.0312252
0.0328554
0.0344878
0.0361204
0.0377509
0.0393773
0.0409973
0.0426088
0.0442097
0.0457978
0.047371
0.0489273
0.0504644
0.0519804
0.0534731
0.0549405
0.0563807
0.0577916
0.0591714
0.060518
0.0618298
0.0631049
0.0643415
0.065538
0.0666927
0.067804
0.0688704
0.0698906
0.0708631
0.0717866
0.0726601
0.0734823
0.0742523
0.0749691
0.075632
0.0762402
0.0767931
0.0772904
0.0777315
0.0781163
0.0784446
0.0787165
0.0789322
0.0790919
0.079196
0.0792452
0.0792403
0.079182
0.0790715
0.07891
0.0786989
0.0784398
0.0781343
0.0777845
0.0773923
0.0769602
0.0764905
0.075986
0.0754493
0.0748837
0.0742922
0.0736783
0.0730456
0.0723977
0.0717387
0.0710726
0.0704035
0.069736
0.0690743
0.0684232
0.0677872
0.067171
0.0665793
0.0660167
0.0654879
0.0649974
0.0645497
0.064149
0.0638001
0.0635078
0.0632681
0.0630736
0.00522482
0.00490314
0.00456553
0.00419606
0.00378045
0.0033233
0.0028294
0.0023024
0.00174611
0.00116458
0.000561918
-5.77031e-05
-0.000690101
-0.0013311
-0.00197658
-0.00262249
-0.00326488
-0.0038999
-0.00452383
-0.00513311
-0.00572433
-0.00629423
-0.00683973
-0.00735792
-0.00784602
-0.00830149
-0.00872195
-0.00910516
-0.00944905
-0.00975175
-0.0100115
-0.0102269
-0.0103963
-0.0105185
-0.0105925
-0.0106172
-0.0105919
-0.0105157
-0.0103883
-0.010209
-0.00997769
-0.00969403
-0.00935798
-0.00896955
-0.00852889
-0.00803621
-0.00749182
-0.00689617
-0.00624977
-0.00555322
-0.00480718
-0.00401243
-0.00316982
-0.00228028
-0.00134478
-0.000364395
0.000659736
0.00172641
0.00283437
0.00398231
0.00516884
0.00639251
0.00765186
0.00894534
0.0102714
0.0116283
0.0130144
0.0144281
0.0158674
0.0173308
0.0188162
0.0203218
0.0218458
0.0233861
0.0249409
0.0265081
0.0280858
0.0296718
0.0312642
0.0328609
0.0344599
0.0360589
0.037656
0.0392491
0.040836
0.0424146
0.0439829
0.0455387
0.04708
0.0486047
0.0501108
0.0515962
0.0530589
0.0544969
0.0559084
0.0572912
0.0586436
0.0599637
0.0612498
0.0625
0.0637126
0.064886
0.0660186
0.0671088
0.0681552
0.0691564
0.0701111
0.0710179
0.0718758
0.0726837
0.0734406
0.0741456
0.0747979
0.0753968
0.0759418
0.0764323
0.0768681
0.0772488
0.0775745
0.077845
0.0780606
0.0782215
0.0783282
0.0783812
0.0783813
0.0783293
0.0782263
0.0780733
0.0778719
0.0776234
0.0773295
0.0769921
0.0766132
0.0761949
0.0757396
0.0752498
0.0747283
0.0741778
0.0736014
0.0730023
0.0723839
0.0717496
0.0711032
0.0704483
0.0697891
0.0691293
0.0684733
0.0678251
0.067189
0.0665692
0.06597
0.0653956
0.0648501
0.0643376
0.063862
0.0634268
0.0630367
0.0626961
0.0623941
0.0621175
0.00624267
0.00583304
0.00542771
0.00500487
0.00454299
0.00404636
0.00351963
0.00296586
0.00238826
0.00179041
0.00117591
0.000548479
-8.81353e-05
-0.000730199
-0.00137399
-0.00201583
-0.0026521
-0.00327932
-0.00389406
-0.00449303
-0.00507305
-0.00563115
-0.00616446
-0.00667022
-0.00714589
-0.00758908
-0.00799753
-0.00836915
-0.00870199
-0.00899429
-0.00924443
-0.00945089
-0.00961234
-0.00972759
-0.0097956
-0.00981542
-0.00978625
-0.00970745
-0.00957848
-0.00939892
-0.00916844
-0.00888687
-0.00855413
-0.00817026
-0.00773535
-0.00724964
-0.00671345
-0.0061272
-0.00549138
-0.00480657
-0.00407343
-0.00329271
-0.00246524
-0.0015919
-0.000673654
0.000288436
0.00129328
0.00233972
0.00342651
0.00455238
0.00571599
0.00691592
0.00815074
0.00941894
0.010719
0.0120493
0.0134081
0.0147939
0.0162049
0.0176393
0.0190954
0.0205713
0.0220651
0.023575
0.0250991
0.0266353
0.0281818
0.0297366
0.0312976
0.0328629
0.0344304
0.035998
0.0375638
0.0391256
0.0406815
0.0422293
0.043767
0.0452926
0.0468041
0.0482993
0.0497763
0.0512332
0.0526679
0.0540784
0.055463
0.0568196
0.0581465
0.0594419
0.0607039
0.0619309
0.0631212
0.0642731
0.0653851
0.0664557
0.0674834
0.068467
0.069405
0.0702964
0.0711398
0.0719344
0.072679
0.073373
0.0740154
0.0746056
0.075143
0.0756272
0.0760579
0.0764347
0.0767577
0.0770267
0.077242
0.0774038
0.0775125
0.0775686
0.077573
0.0775263
0.0774296
0.0772839
0.0770906
0.0768512
0.0765671
0.0762402
0.0758724
0.0754657
0.0750223
0.0745447
0.0740354
0.0734971
0.0729327
0.0723451
0.0717375
0.0711132
0.0704756
0.0698283
0.0691748
0.0685188
0.0678642
0.0672147
0.0665743
0.0659468
0.065336
0.0647457
0.0641795
0.0636411
0.0631337
0.0626605
0.062226
0.0618342
0.0614673
0.0611064
0.00730096
0.00680239
0.00632772
0.00584936
0.00533862
0.00479961
0.00423688
0.00365297
0.00305057
0.00243277
0.00180273
0.00116375
0.000519142
-0.000127745
-0.000773553
-0.00141494
-0.00204867
-0.00267154
-0.00328041
-0.00387226
-0.00444421
-0.00499344
-0.00551732
-0.0060133
-0.00647902
-0.00691226
-0.00731086
-0.00767289
-0.00799656
-0.00828017
-0.00852219
-0.0087212
-0.00887596
-0.00898535
-0.00904836
-0.0090641
-0.00903184
-0.00895096
-0.00882095
-0.00864139
-0.00841202
-0.00813266
-0.00780326
-0.00742382
-0.00699447
-0.00651544
-0.00598706
-0.00540972
-0.0047839
-0.00411017
-0.00338919
-0.00262167
-0.00180843
-0.000950332
-4.83099e-05
0.000896604
0.00188335
0.00291079
0.00397771
0.00508288
0.00622498
0.00740263
0.00861444
0.00985895
0.0111346
0.0124399
0.0137732
0.0151329
0.0165173
0.0179246
0.0193532
0.0208012
0.0222668
0.0237482
0.0252434
0.0267507
0.028268
0.0297935
0.0313252
0.032861
0.0343991
0.0359374
0.0374739
0.0390066
0.0405334
0.0420525
0.0435617
0.0450591
0.0465427
0.0480104
0.0494604
0.0508906
0.0522992
0.0536842
0.0550437
0.056376
0.0576792
0.0589515
0.0601912
0.0613966
0.0625661
0.0636981
0.064791
0.0658434
0.0668538
0.067821
0.0687437
0.0696206
0.0704506
0.0712328
0.0719661
0.0726498
0.0732829
0.073865
0.0743954
0.0748737
0.0752995
0.0756726
0.0759928
0.0762603
0.076475
0.0766373
0.0767475
0.0768062
0.076814
0.0767717
0.0766802
0.0765406
0.0763542
0.0761222
0.0758463
0.0755281
0.0751693
0.074772
0.0743383
0.0738704
0.0733707
0.0728418
0.0722864
0.0717073
0.0711073
0.0704897
0.0698575
0.069214
0.0685626
0.0679067
0.0672498
0.0665953
0.0659467
0.0653076
0.0646815
0.0640715
0.0634812
0.0629134
0.0623712
0.0618571
0.0613754
0.0609302
0.0604966
0.0600502
0.00839033
0.00780252
0.00725752
0.00672205
0.00616045
0.00557669
0.00497533
0.00435841
0.00372814
0.0030872
0.00243836
0.00178448
0.0011285
0.000473421
-0.000177759
-0.000822042
-0.00145648
-0.00207816
-0.00268424
-0.00327195
-0.00383865
-0.00438175
-0.0048988
-0.00538749
-0.00584559
-0.00627103
-0.00666184
-0.0070162
-0.00733243
-0.00760896
-0.00784432
-0.00803724
-0.00818652
-0.0082911
-0.00835004
-0.00836253
-0.00832786
-0.00824546
-0.00811484
-0.00793563
-0.00770758
-0.00743055
-0.00710447
-0.00672937
-0.00630539
-0.00583276
-0.00531179
-0.00474289
-0.00412651
-0.00346322
-0.00275367
-0.00199856
-0.00119868
-0.00035486
0.000531963
0.00146079
0.00243058
0.00344023
0.00448856
0.00557436
0.00669633
0.00785315
0.00904344
0.0102658
0.0115187
0.0128006
0.01411
0.0154453
0.0168048
0.0181868
0.0195897
0.0210116
0.0224509
0.0239056
0.025374
0.0268542
0.0283444
0.0298425
0.0313467
0.0328552
0.0343658
0.0358767
0.037386
0.0388915
0.0403914
0.0418837
0.0433664
0.0448375
0.0462952
0.0477374
0.0491622
0.0505677
0.051952
0.0533133
0.0546497
0.0559594
0.0572406
0.0584916
0.0597106
0.0608961
0.0620464
0.0631599
0.0642352
0.0652707
0.0662652
0.0672173
0.0681257
0.0689893
0.069807
0.0705777
0.0713005
0.0719747
0.0725993
0.0731738
0.0736976
0.0741703
0.0745916
0.074961
0.0752786
0.0755444
0.0757583
0.0759208
0.076032
0.0760926
0.0761032
0.0760644
0.0759772
0.0758425
0.0756616
0.0754358
0.0751664
0.0748551
0.0745035
0.0741136
0.0736873
0.0732268
0.0727343
0.0722122
0.0716631
0.0710895
0.0704942
0.0698801
0.0692501
0.0686073
0.0679546
0.0672954
0.0666327
0.0659697
0.0653096
0.0646555
0.0640107
0.0633779
0.0627602
0.0621603
0.0615805
0.061023
0.0604921
0.0599918
0.0594904
0.0589581
0.00950228
0.00882546
0.00820961
0.00761593
0.00700192
0.00637151
0.00572933
0.00507696
0.00441623
0.00374939
0.00307885
0.0024071
0.00173675
0.00107044
0.000410838
-0.00023936
-0.000877467
-0.00150086
-0.00210698
-0.0026933
-0.00325739
-0.00379688
-0.00430954
-0.00479322
-0.00524588
-0.00566557
-0.0060505
-0.00639898
-0.00670943
-0.00698039
-0.00721051
-0.00739858
-0.00754352
-0.00764431
-0.00770007
-0.00771007
-0.00767365
-0.00759025
-0.00745945
-0.0072809
-0.00705438
-0.00677977
-0.00645702
-0.00608615
-0.00566735
-0.00520083
-0.0046869
-0.00412596
-0.00351847
-0.002865
-0.00216618
-0.00142268
-0.00063529
0.000195166
0.00106778
0.00198158
0.00293555
0.00392861
0.00495959
0.00602731
0.00713052
0.00826791
0.00943814
0.0106398
0.0118715
0.0131316
0.0144188
0.0157313
0.0170676
0.0184261
0.019805
0.0212027
0.0226174
0.0240474
0.0254908
0.0269458
0.0284106
0.0298834
0.0313622
0.0328451
0.0343303
0.0358158
0.0372997
0.03878
0.0402549
0.0417224
0.0431805
0.0446273
0.046061
0.0474795
0.0488811
0.0502638
0.0516257
0.0529651
0.0542801
0.0555689
0.0568299
0.0580612
0.0592612
0.0604283
0.0615609
0.0626575
0.0637165
0.0647366
0.0657164
0.0666546
0.06755
0.0684014
0.0692077
0.0699679
0.0706811
0.0713464
0.0719632
0.0725307
0.0730485
0.0735159
0.0739328
0.0742988
0.0746138
0.0748778
0.0750908
0.0752531
0.075365
0.075427
0.0754396
0.0754035
0.0753196
0.0751888
0.0750122
0.0747911
0.0745268
0.0742208
0.0738747
0.0734902
0.0730694
0.0726141
0.0721265
0.0716088
0.0710633
0.0704927
0.0698993
0.0692859
0.0686552
0.0680099
0.0673529
0.0666872
0.0660156
0.065341
0.0646662
0.0639942
0.0633277
0.0626693
0.0620216
0.0613869
0.0607673
0.0601645
0.0595828
0.0590261
0.0584563
0.0578381
0.0106291
0.00986382
0.009177
0.00852439
0.00785684
0.00717831
0.0064935
0.00580366
0.00511021
0.00441507
0.00372029
0.00302806
0.00234066
0.0016604
0.000989649
0.000330831
-0.000313648
-0.000941421
-0.00155018
-0.00213763
-0.00270153
-0.00323977
-0.00375028
-0.00423109
-0.00468031
-0.00509617
-0.00547703
-0.0058213
-0.00612752
-0.00639433
-0.00662053
-0.00680497
-0.00694662
-0.00704456
-0.007098
-0.00710624
-0.00706867
-0.00698478
-0.00685418
-0.00667659
-0.00645179
-0.00617968
-0.00586023
-0.00549352
-0.00507969
-0.00461898
-0.00411171
-0.00355828
-0.00295915
-0.00231488
-0.00162608
-0.000893429
-0.00011769
0.000700317
0.00155971
0.00245953
0.00339878
0.0043764
0.00539125
0.00644218
0.00752795
0.00864729
0.00979889
0.0109814
0.0121933
0.0134333
0.0146997
0.0159911
0.017306
0.0186426
0.0199993
0.0213745
0.0227665
0.0241734
0.0255937
0.0270254
0.0284668
0.029916
0.0313712
0.0328306
0.0342922
0.0357542
0.0372147
0.0386718
0.0401236
0.0415681
0.0430036
0.044428
0.0458396
0.0472364
0.0486165
0.0499782
0.0513195
0.0526388
0.0539341
0.0552038
0.0564462
0.0576595
0.0588421
0.0599924
0.0611088
0.0621898
0.0632341
0.06424
0.0652064
0.066132
0.0670154
0.0678556
0.0686515
0.0694021
0.0701065
0.0707639
0.0713734
0.0719346
0.0724467
0.0729093
0.0733222
0.0736849
0.0739974
0.0742595
0.0744715
0.0746334
0.0747455
0.0748083
0.0748223
0.0747882
0.0747067
0.0745788
0.0744054
0.0741877
0.0739271
0.0736248
0.0732826
0.0729019
0.0724845
0.0720324
0.0715475
0.0710319
0.0704879
0.0699176
0.0693236
0.0687083
0.0680741
0.0674237
0.0667596
0.0660846
0.0654012
0.0647121
0.06402
0.0633273
0.0626365
0.06195
0.0612699
0.0605985
0.0599372
0.0592874
0.0586537
0.0580399
0.0574014
0.0566978
0.0117637
0.0109109
0.0101532
0.0094413
0.0087194
0.00799159
0.00726274
0.00653373
0.00580567
0.00508014
0.00435893
0.0036439
0.00293705
0.0022404
0.00155607
0.000886193
0.000232896
-0.000401693
-0.00101544
-0.00160632
-0.00217229
-0.00271144
-0.00322187
-0.00370177
-0.00414945
-0.00456328
-0.00494173
-0.00528334
-0.00558678
-0.00585082
-0.00607432
-0.00625622
-0.00639558
-0.00649159
-0.0065435
-0.00655064
-0.00651249
-0.00642857
-0.00629856
-0.00612219
-0.00589928
-0.00562974
-0.00531358
-0.00495089
-0.00454184
-0.00408666
-0.00358567
-0.0030393
-0.00244799
-0.0018123
-0.00113284
-0.000410271
0.000354641
0.00116109
0.00200822
0.00289508
0.0038207
0.00478403
0.00578395
0.00681933
0.00788898