/*--------------------------------*- C++ -*----------------------------------*\
  =========                 |
  \\      /  F ield         | OpenFOAM: The Open Source CFD Toolbox
   \\    /   O peration     | Website:  https://openfoam.org
    \\  /    A nd           | Version:  7
     \\/     M anipulation  |
\*---------------------------------------------------------------------------*/
FoamFile
{
    version     2.0;
    format      ascii;
    class       surfaceScalarField;
    location    "0.275";
    object      phi;
}
// * * * * * * * * * * * * * * * * * * * * * * * * * * * * * * * * * * * * * //

dimensions      [0 3 -1 0 0 0 0];

internalField   nonuniform List<scalar> 
50880
(
6.12647e-12
-6.11662e-12
3.62913e-11
-3.01582e-11
8.11553e-11
-4.48813e-11
1.30772e-10
-4.9615e-11
1.77985e-10
-4.72092e-11
2.17812e-10
-3.98295e-11
2.46839e-10
-2.90229e-11
2.62739e-10
-1.59044e-11
2.64e-10
-1.258e-12
2.49651e-10
1.4349e-11
2.19136e-10
3.05151e-11
1.72196e-10
4.69424e-11
1.08792e-10
6.34054e-11
2.90588e-11
7.9736e-11
-6.67406e-11
9.5801e-11
-1.78242e-10
1.11501e-10
-3.05e-10
1.26759e-10
-4.46513e-10
1.41513e-10
-6.02231e-10
1.55718e-10
-7.71566e-10
1.69335e-10
-9.53904e-10
1.82338e-10
-1.14861e-09
1.94704e-10
-1.35503e-09
2.06417e-10
-1.5725e-09
2.1747e-10
-1.80035e-09
2.27852e-10
-2.03791e-09
2.37559e-10
-2.2845e-09
2.46591e-10
-2.53945e-09
2.5495e-10
-2.80209e-09
2.62635e-10
-3.07174e-09
2.69652e-10
-3.34774e-09
2.76006e-10
-3.62944e-09
2.81703e-10
-3.91619e-09
2.86751e-10
-4.20735e-09
2.9116e-10
-4.50229e-09
2.94938e-10
-4.80038e-09
2.98092e-10
-5.10102e-09
3.00635e-10
-5.40359e-09
3.02578e-10
-5.70753e-09
3.03932e-10
-6.01223e-09
3.04706e-10
-6.31715e-09
3.04912e-10
-6.62171e-09
3.04565e-10
-6.92538e-09
3.03676e-10
-7.22764e-09
3.02254e-10
-7.52795e-09
3.00314e-10
-7.82582e-09
2.9787e-10
-8.12075e-09
2.94933e-10
-8.41227e-09
2.91515e-10
-8.6999e-09
2.87628e-10
-8.98319e-09
2.83289e-10
-9.26169e-09
2.78508e-10
-9.53499e-09
2.73298e-10
-9.80266e-09
2.67672e-10
-1.00643e-08
2.61644e-10
-1.03195e-08
2.55227e-10
-1.0568e-08
2.48433e-10
-1.08092e-08
2.41276e-10
-1.1043e-08
2.33769e-10
-1.12689e-08
2.25927e-10
-1.14867e-08
2.17761e-10
-1.1696e-08
2.09285e-10
-1.18965e-08
2.00511e-10
-1.20879e-08
1.91455e-10
-1.22701e-08
1.82129e-10
-1.24426e-08
1.72547e-10
-1.26053e-08
1.62722e-10
-1.2758e-08
1.52668e-10
-1.29004e-08
1.424e-10
-1.30323e-08
1.3193e-10
-1.31536e-08
1.21272e-10
-1.3264e-08
1.1044e-10
-1.33635e-08
9.945e-11
-1.34518e-08
8.83145e-11
-1.35289e-08
7.70479e-11
-1.35945e-08
6.5665e-11
-1.36487e-08
5.41804e-11
-1.36913e-08
4.26085e-11
-1.37223e-08
3.09645e-11
-1.37415e-08
1.92634e-11
-1.37491e-08
7.51996e-12
-1.37448e-08
-4.25031e-12
-1.37288e-08
-1.6032e-11
-1.3701e-08
-2.781e-11
-1.36614e-08
-3.95682e-11
-1.36101e-08
-5.12906e-11
-1.35471e-08
-6.29621e-11
-1.34726e-08
-7.4566e-11
-1.33865e-08
-8.60857e-11
-1.3289e-08
-9.75054e-11
-1.31802e-08
-1.08809e-10
-1.30602e-08
-1.1998e-10
-1.29292e-08
-1.31e-10
-1.27873e-08
-1.41854e-10
-1.26348e-08
-1.52524e-10
-1.24718e-08
-1.62995e-10
-1.22986e-08
-1.73247e-10
-1.21153e-08
-1.83266e-10
-1.19223e-08
-1.93033e-10
-1.17197e-08
-2.02531e-10
-1.1508e-08
-2.11744e-10
-1.12874e-08
-2.20654e-10
-1.10581e-08
-2.29245e-10
-1.08206e-08
-2.37499e-10
-1.05752e-08
-2.45398e-10
-1.03223e-08
-2.52928e-10
-1.00622e-08
-2.60072e-10
-9.7954e-09
-2.66811e-10
-9.52227e-09
-2.73129e-10
-9.24326e-09
-2.79012e-10
-8.95882e-09
-2.84443e-10
-8.66941e-09
-2.89406e-10
-8.37553e-09
-2.93886e-10
-8.07766e-09
-2.97867e-10
-7.77632e-09
-3.01335e-10
-7.47205e-09
-3.04277e-10
-7.16537e-09
-3.06677e-10
-6.85685e-09
-3.08522e-10
-6.54705e-09
-3.09799e-10
-6.23656e-09
-3.10496e-10
-5.92596e-09
-3.106e-10
-5.61586e-09
-3.101e-10
-5.30688e-09
-3.08985e-10
-4.99963e-09
-3.07245e-10
-4.69476e-09
-3.04872e-10
-4.3929e-09
-3.01856e-10
-4.09472e-09
-2.98189e-10
-3.80085e-09
-2.93865e-10
-3.51198e-09
-2.88877e-10
-3.22876e-09
-2.83221e-10
-2.95187e-09
-2.76893e-10
-2.68198e-09
-2.6989e-10
-2.41977e-09
-2.62211e-10
-2.16591e-09
-2.53857e-10
-1.92108e-09
-2.4483e-10
-1.68595e-09
-2.35134e-10
-1.46118e-09
-2.24774e-10
-1.24742e-09
-2.1376e-10
-1.04532e-09
-2.02102e-10
-8.55502e-10
-1.89816e-10
-6.78582e-10
-1.7692e-10
-5.15143e-10
-1.63439e-10
-3.65742e-10
-1.49401e-10
-2.30901e-10
-1.34842e-10
-1.11094e-10
-1.19807e-10
-6.74264e-12
-1.04352e-10
8.18012e-11
-8.85438e-11
1.54271e-10
-7.24697e-11
2.10509e-10
-5.62374e-11
2.50495e-10
-3.99847e-11
2.74384e-10
-2.38881e-11
2.82562e-10
-8.17734e-12
2.75718e-10
6.84475e-12
2.54948e-10
2.07703e-11
2.21906e-10
3.30413e-11
1.79026e-10
4.28787e-11
1.29831e-10
4.91934e-11
7.93387e-11
5.04921e-11
3.46183e-11
4.47225e-11
5.32813e-12
2.92971e-11
5.33662e-12
3.0153e-11
-3.62624e-11
1.01267e-10
-1.01294e-10
1.95482e-10
-1.39089e-10
2.95736e-10
-1.49866e-10
3.87672e-10
-1.39145e-10
4.60049e-10
-1.1221e-10
5.04419e-10
-7.33915e-11
5.14596e-10
-2.60763e-11
4.86187e-10
2.71468e-11
4.16202e-10
8.43322e-11
3.0272e-10
1.43996e-10
1.44659e-10
2.05003e-10
-5.84128e-11
2.66479e-10
-3.0642e-10
3.27741e-10
-5.98881e-10
3.88258e-10
-9.34996e-10
4.47614e-10
-1.31371e-09
5.05476e-10
-1.73379e-09
5.61583e-10
-2.1938e-09
6.15729e-10
-2.69221e-09
6.67751e-10
-3.2274e-09
7.1752e-10
-3.79764e-09
7.64938e-10
-4.40115e-09
8.0993e-10
-5.03612e-09
8.52439e-10
-5.70069e-09
8.92424e-10
-6.39299e-09
9.2986e-10
-7.11113e-09
9.64731e-10
-7.85321e-09
9.97028e-10
-8.61734e-09
1.02676e-09
-9.40162e-09
1.05393e-09
-1.02042e-08
1.07855e-09
-1.10231e-08
1.10065e-09
-1.18566e-08
1.12025e-09
-1.27028e-08
1.13738e-09
-1.356e-08
1.15207e-09
-1.44262e-08
1.16435e-09
-1.52999e-08
1.17426e-09
-1.61791e-08
1.18183e-09
-1.70623e-08
1.18712e-09
-1.79478e-08
1.19015e-09
-1.88338e-08
1.19099e-09
-1.97189e-08
1.18965e-09
-2.06015e-08
1.18621e-09
-2.14799e-08
1.18069e-09
-2.23527e-08
1.17315e-09
-2.32185e-08
1.16364e-09
-2.40758e-08
1.1522e-09
-2.49231e-08
1.13888e-09
-2.57592e-08
1.12373e-09
-2.65827e-08
1.10681e-09
-2.73924e-08
1.08816e-09
-2.81869e-08
1.06783e-09
-2.89651e-08
1.04587e-09
-2.97258e-08
1.02234e-09
-3.04679e-08
9.97285e-10
-3.11902e-08
9.70753e-10
-3.18917e-08
9.42798e-10
-3.25714e-08
9.13473e-10
-3.32283e-08
8.82829e-10
-3.38615e-08
8.50917e-10
-3.447e-08
8.17789e-10
-3.5053e-08
7.83499e-10
-3.56096e-08
7.48099e-10
-3.61391e-08
7.11643e-10
-3.66408e-08
6.74181e-10
-3.71138e-08
6.3577e-10
-3.75576e-08
5.96461e-10
-3.79715e-08
5.5631e-10
-3.8355e-08
5.1537e-10
-3.87074e-08
4.73696e-10
-3.90283e-08
4.31344e-10
-3.93172e-08
3.88368e-10
-3.95737e-08
3.44826e-10
-3.97974e-08
3.00772e-10
-3.9988e-08
2.56265e-10
-4.01452e-08
2.11361e-10
-4.02687e-08
1.66118e-10
-4.03584e-08
1.20595e-10
-4.0414e-08
7.48509e-11
-4.04354e-08
2.8944e-11
-4.04226e-08
-1.70656e-11
-4.03755e-08
-6.31166e-11
-4.02941e-08
-1.09148e-10
-4.01786e-08
-1.551e-10
-4.0029e-08
-2.0091e-10
-3.98454e-08
-2.46513e-10
-3.96281e-08
-2.91849e-10
-3.93774e-08
-3.36853e-10
-3.90934e-08
-3.81462e-10
-3.87766e-08
-4.2561e-10
-3.84274e-08
-4.69233e-10
-3.80461e-08
-5.12266e-10
-3.76333e-08
-5.54644e-10
-3.71895e-08
-5.96299e-10
-3.67154e-08
-6.37167e-10
-3.62114e-08
-6.77182e-10
-3.56784e-08
-7.16276e-10
-3.51171e-08
-7.54382e-10
-3.45282e-08
-7.91435e-10
-3.39125e-08
-8.27369e-10
-3.32711e-08
-8.62116e-10
-3.26047e-08
-8.9561e-10
-3.19144e-08
-9.27786e-10
-3.12012e-08
-9.58578e-10
-3.04662e-08
-9.8792e-10
-2.97106e-08
-1.01575e-09
-2.89354e-08
-1.042e-09
-2.81419e-08
-1.06661e-09
-2.73314e-08
-1.08951e-09
-2.65052e-08
-1.11065e-09
-2.56646e-08
-1.12996e-09
-2.48111e-08
-1.14739e-09
-2.39461e-08
-1.16288e-09
-2.30711e-08
-1.17636e-09
-2.21876e-08
-1.1878e-09
-2.12971e-08
-1.19712e-09
-2.04014e-08
-1.20428e-09
-1.95019e-08
-1.20924e-09
-1.86005e-08
-1.21194e-09
-1.76987e-08
-1.21233e-09
-1.67985e-08
-1.21038e-09
-1.59014e-08
-1.20605e-09
-1.50093e-08
-1.1993e-09
-1.41241e-08
-1.19008e-09
-1.32476e-08
-1.17838e-09
-1.23816e-08
-1.16417e-09
-1.15281e-08
-1.14741e-09
-1.06889e-08
-1.1281e-09
-9.86587e-09
-1.10621e-09
-9.06103e-09
-1.08173e-09
-8.27626e-09
-1.05466e-09
-7.51347e-09
-1.02501e-09
-6.77456e-09
-9.92766e-10
-6.06143e-09
-9.57956e-10
-5.37597e-09
-9.20598e-10
-4.72002e-09
-8.80725e-10
-4.0954e-09
-8.38378e-10
-3.50389e-09
-7.93611e-10
-2.94721e-09
-7.46492e-10
-2.42702e-09
-6.97108e-10
-1.9449e-09
-6.45564e-10
-1.50231e-09
-5.91987e-10
-1.10062e-09
-5.36535e-10
-7.41022e-10
-4.79401e-10
-4.24552e-10
-4.2082e-10
-1.52011e-10
-3.61082e-10
7.60671e-11
-3.00545e-10
2.59485e-10
-2.39653e-10
3.98462e-10
-1.78961e-10
4.93744e-10
-1.19168e-10
5.46734e-10
-6.11654e-11
5.59672e-10
-6.09328e-12
5.35874e-10
4.45699e-11
4.80023e-10
8.88931e-11
3.98556e-10
1.24348e-10
3.00097e-10
1.47652e-10
1.9591e-10
1.54675e-10
1.00142e-10
1.40481e-10
2.92649e-11
1.0016e-10
3.4606e-11
4.48564e-11
-8.11418e-11
1.39131e-10
-1.95562e-10
2.56308e-10
-2.56261e-10
3.74769e-10
-2.68332e-10
4.76252e-10
-2.40623e-10
5.45878e-10
-1.81833e-10
5.7195e-10
-9.94555e-11
5.45509e-10
3.62447e-13
4.59933e-10
1.12723e-10
3.10487e-10
2.33781e-10
9.39771e-11
3.60506e-10
-1.9154e-10
4.90523e-10
-5.47013e-10
6.21953e-10
-9.72581e-10
7.5331e-10
-1.46773e-09
8.83412e-10
-2.03143e-09
1.01132e-09
-2.66222e-09
1.13626e-09
-3.3583e-09
1.25766e-09
-4.11758e-09
1.37501e-09
-4.93776e-09
1.48793e-09
-5.81635e-09
1.59611e-09
-6.75073e-09
1.69932e-09
-7.73816e-09
1.79736e-09
-8.77581e-09
1.89008e-09
-9.86078e-09
1.97739e-09
-1.09901e-08
2.0592e-09
-1.21609e-08
2.13547e-09
-1.337e-08
2.20617e-09
-1.46146e-08
2.2713e-09
-1.58915e-08
2.33085e-09
-1.71978e-08
2.38486e-09
-1.85305e-08
2.43336e-09
-1.98866e-08
2.47639e-09
-2.12632e-08
2.51401e-09
-2.26575e-08
2.54628e-09
-2.40664e-08
2.57328e-09
-2.54872e-08
2.59507e-09
-2.69171e-08
2.61174e-09
-2.83534e-08
2.62337e-09
-2.97932e-08
2.63005e-09
-3.12341e-08
2.63187e-09
-3.26734e-08
2.62893e-09
-3.41085e-08
2.62132e-09
-3.5537e-08
2.60915e-09
-3.69563e-08
2.59252e-09
-3.83642e-08
2.57152e-09
-3.97583e-08
2.54627e-09
-4.11363e-08
2.51688e-09
-4.2496e-08
2.48344e-09
-4.38353e-08
2.44608e-09
-4.5152e-08
2.40489e-09
-4.64442e-08
2.35999e-09
-4.77098e-08
2.31149e-09
-4.8947e-08
2.25951e-09
-5.01538e-08
2.20414e-09
-5.13286e-08
2.14552e-09
-5.24695e-08
2.08374e-09
-5.3575e-08
2.01893e-09
-5.46433e-08
1.9512e-09
-5.56731e-08
1.88066e-09
-5.66627e-08
1.80742e-09
-5.76108e-08
1.73162e-09
-5.85161e-08
1.65336e-09
-5.93772e-08
1.57275e-09
-6.01929e-08
1.48993e-09
-6.09622e-08
1.40499e-09
-6.16838e-08
1.31808e-09
-6.23568e-08
1.22929e-09
-6.29802e-08
1.13877e-09
-6.35531e-08
1.04662e-09
-6.40747e-08
9.52967e-10
-6.45443e-08
8.57938e-10
-6.49611e-08
7.61657e-10
-6.53246e-08
6.64248e-10
-6.56341e-08
5.65837e-10
-6.58893e-08
4.66551e-10
-6.60897e-08
3.6652e-10
-6.6235e-08
2.65872e-10
-6.63249e-08
1.64737e-10
-6.63592e-08
6.32484e-11
-6.63378e-08
-3.84618e-11
-6.62607e-08
-1.4026e-10
-6.61278e-08
-2.4201e-10
-6.59393e-08
-3.43576e-10
-6.56954e-08
-4.44821e-10
-6.53963e-08
-5.45606e-10
-6.50424e-08
-6.45791e-10
-6.4634e-08
-7.45236e-10
-6.41716e-08
-8.438e-10
-6.36559e-08
-9.41339e-10
-6.30874e-08
-1.03771e-09
-6.24669e-08
-1.13277e-09
-6.17952e-08
-1.22637e-09
-6.10731e-08
-1.31837e-09
-6.03017e-08
-1.40863e-09
-5.94819e-08
-1.49699e-09
-5.86148e-08
-1.5833e-09
-5.77018e-08
-1.66743e-09
-5.6744e-08
-1.74923e-09
-5.57428e-08
-1.82855e-09
-5.46997e-08
-1.90523e-09
-5.36162e-08
-1.97915e-09
-5.24938e-08
-2.05014e-09
-5.13343e-08
-2.11808e-09
-5.01394e-08
-2.18281e-09
-4.8911e-08
-2.24419e-09
-4.76509e-08
-2.30209e-09
-4.63611e-08
-2.35636e-09
-4.50438e-08
-2.40686e-09
-4.3701e-08
-2.45347e-09
-4.23349e-08
-2.49605e-09
-4.09478e-08
-2.53446e-09
-3.95421e-08
-2.5686e-09
-3.81201e-08
-2.59832e-09
-3.66844e-08
-2.62351e-09
-3.52375e-08
-2.64406e-09
-3.37819e-08
-2.65986e-09
-3.23204e-08
-2.67079e-09
-3.08555e-08
-2.67675e-09
-2.93902e-08
-2.67765e-09
-2.79272e-08
-2.6734e-09
-2.64694e-08
-2.6639e-09
-2.50196e-08
-2.64909e-09
-2.35808e-08
-2.62889e-09
-2.21559e-08
-2.60323e-09
-2.0748e-08
-2.57205e-09
-1.93601e-08
-2.53532e-09
-1.79952e-08
-2.49299e-09
-1.66564e-08
-2.44503e-09
-1.53467e-08
-2.39142e-09
-1.40692e-08
-2.33217e-09
-1.2827e-08
-2.26728e-09
-1.1623e-08
-2.19677e-09
-1.04602e-08
-2.12069e-09
-9.34172e-09
-2.0391e-09
-8.27038e-09
-1.95207e-09
-7.24905e-09
-1.85971e-09
-6.2805e-09
-1.76216e-09
-5.3674e-09
-1.65959e-09
-4.51232e-09
-1.55219e-09
-3.71766e-09
-1.44023e-09
-2.98564e-09
-1.324e-09
-2.3183e-09
-1.20388e-09
-1.7174e-09
-1.08031e-09
-1.18438e-09
-9.53837e-10
-7.20332e-10
-8.25127e-10
-3.25889e-10
-6.94987e-10
-1.1313e-12
-5.6441e-10
2.5453e-10
-4.34622e-10
4.42506e-10
-3.07143e-10
5.65213e-10
-1.83872e-10
6.26309e-10
-6.71891e-11
6.30974e-10
3.99044e-11
5.86249e-10
1.33618e-10
5.01416e-10
2.09183e-10
3.88393e-10
2.6068e-10
2.62079e-10
2.80994e-10
1.4051e-10
2.62051e-10
4.46963e-11
1.95967e-10
7.93031e-11
4.9687e-11
-1.30829e-10
1.50221e-10
-2.96083e-10
2.68968e-10
-3.75014e-10
3.80762e-10
-3.80126e-10
4.64795e-10
-3.24658e-10
5.04009e-10
-2.21043e-10
4.84682e-10
-8.01308e-11
3.96051e-10
8.89938e-11
2.29889e-10
2.78886e-10
-1.98524e-11
4.83522e-10
-3.57395e-10
6.98053e-10
-7.85448e-10
9.18578e-10
-1.30546e-09
1.14196e-09
-1.91783e-09
1.36568e-09
-2.62211e-09
1.5877e-09
-3.41716e-09
1.80636e-09
-4.30122e-09
2.02033e-09
-5.27209e-09
2.22853e-09
-6.32716e-09
2.43008e-09
-7.46351e-09
2.62428e-09
-8.67795e-09
2.81055e-09
-9.96706e-09
2.98844e-09
-1.13273e-08
3.15759e-09
-1.27549e-08
3.31772e-09
-1.42462e-08
3.46863e-09
-1.57971e-08
3.61014e-09
-1.74038e-08
3.74215e-09
-1.90622e-08
3.8646e-09
-2.07684e-08
3.97746e-09
-2.25183e-08
4.08073e-09
-2.43078e-08
4.17442e-09
-2.6133e-08
4.25859e-09
-2.799e-08
4.3333e-09
-2.98746e-08
4.39864e-09
-3.1783e-08
4.4547e-09
-3.37113e-08
4.5016e-09
-3.56557e-08
4.53946e-09
-3.76124e-08
4.56841e-09
-3.95776e-08
4.58859e-09
-4.15477e-08
4.60015e-09
-4.35191e-08
4.60325e-09
-4.54882e-08
4.59805e-09
-4.74516e-08
4.58471e-09
-4.94058e-08
4.5634e-09
-5.13476e-08
4.5343e-09
-5.32737e-08
4.49759e-09
-5.51809e-08
4.45345e-09
-5.7066e-08
4.40205e-09
-5.89262e-08
4.3436e-09
-6.07584e-08
4.27827e-09
-6.25597e-08
4.20625e-09
-6.43275e-08
4.12774e-09
-6.60589e-08
4.04293e-09
-6.77514e-08
3.95202e-09
-6.94025e-08
3.85519e-09
-7.10096e-08
3.75265e-09
-7.25705e-08
3.6446e-09
-7.40828e-08
3.53123e-09
-7.55443e-08
3.41274e-09
-7.6953e-08
3.28934e-09
-7.83068e-08
3.16123e-09
-7.96038e-08
3.0286e-09
-8.08421e-08
2.89167e-09
-8.202e-08
2.75064e-09
-8.31358e-08
2.60572e-09
-8.41879e-08
2.45712e-09
-8.51749e-08
2.30503e-09
-8.60953e-08
2.14969e-09
-8.69478e-08
1.99128e-09
-8.77312e-08
1.83004e-09
-8.84444e-08
1.66617e-09
-8.90864e-08
1.4999e-09
-8.96562e-08
1.33143e-09
-9.01529e-08
1.16099e-09
-9.05759e-08
9.88804e-10
-9.09244e-08
8.15091e-10
-9.1198e-08
6.40077e-10
-9.13961e-08
4.63989e-10
-9.15184e-08
2.87058e-10
-9.15647e-08
1.09512e-10
-9.15347e-08
-6.84131e-11
-9.14285e-08
-2.46484e-10
-9.1246e-08
-4.24463e-10
-9.09875e-08
-6.02111e-10
-9.06531e-08
-7.79188e-10
-9.02433e-08
-9.55451e-10
-8.97584e-08
-1.13065e-09
-8.91991e-08
-1.30455e-09
-8.8566e-08
-1.4769e-09
-8.78599e-08
-1.64744e-09
-8.70817e-08
-1.81593e-09
-8.62323e-08
-1.98212e-09
-8.5313e-08
-2.14575e-09
-8.43248e-08
-2.30656e-09
-8.32691e-08
-2.46431e-09
-8.21474e-08
-2.61873e-09
-8.09611e-08
-2.76958e-09
-7.97119e-08
-2.91659e-09
-7.84016e-08
-3.05951e-09
-7.70321e-08
-3.19808e-09
-7.56053e-08
-3.33206e-09
-7.41233e-08
-3.46118e-09
-7.25882e-08
-3.58519e-09
-7.10025e-08
-3.70384e-09
-6.93684e-08
-3.81689e-09
-6.76885e-08
-3.92408e-09
-6.59654e-08
-4.02517e-09
-6.42018e-08
-4.11993e-09
-6.24006e-08
-4.20811e-09
-6.05646e-08
-4.28948e-09
-5.86968e-08
-4.36382e-09
-5.68004e-08
-4.43089e-09
-5.48785e-08
-4.49048e-09
-5.29344e-08
-4.54238e-09
-5.09715e-08
-4.58638e-09
-4.89933e-08
-4.62229e-09
-4.70033e-08
-4.6499e-09
-4.5005e-08
-4.66904e-09
-4.30022e-08
-4.67953e-09
-4.09987e-08
-4.68121e-09
-3.89982e-08
-4.67392e-09
-3.70046e-08
-4.65752e-09
-3.50218e-08
-4.63187e-09
-3.30538e-08
-4.59685e-09
-3.11047e-08
-4.55237e-09
-2.91784e-08
-4.49832e-09
-2.72791e-08
-4.43463e-09
-2.54108e-08
-4.36124e-09
-2.35778e-08
-4.27812e-09
-2.17839e-08
-4.18524e-09
-2.00335e-08
-4.0826e-09
-1.83306e-08
-3.97024e-09
-1.66791e-08
-3.84821e-09
-1.50832e-08
-3.7166e-09
-1.35468e-08
-3.57552e-09
-1.20737e-08
-3.42514e-09
-1.06678e-08
-3.26566e-09
-9.33259e-09
-3.09734e-09
-8.07168e-09
-2.92049e-09
-6.88837e-09
-2.7355e-09
-5.78578e-09
-2.54282e-09
-4.76675e-09
-2.34303e-09
-3.83385e-09
-2.13678e-09
-2.98926e-09
-1.92489e-09
-2.23476e-09
-1.70834e-09
-1.57157e-09
-1.48831e-09
-1.00036e-09
-1.2662e-09
-5.21001e-10
-1.04376e-09
-1.32535e-10
-8.23089e-10
1.67075e-10
-6.06753e-10
3.81122e-10
-3.97918e-10
5.14406e-10
-2.00473e-10
5.73523e-10
-1.92139e-11
5.67185e-10
1.39953e-10
5.06567e-10
2.69799e-10
4.0565e-10
3.61595e-10
2.81572e-10
4.05068e-10
1.5497e-10
3.88657e-10
5.05334e-11
3.00403e-10
1.29836e-10
4.74662e-11
-1.78285e-10
1.40094e-10
-3.88714e-10
2.42419e-10
-4.77341e-10
3.27075e-10
-4.64773e-10
3.71688e-10
-3.69268e-10
3.5791e-10
-2.07264e-10
2.7083e-10
6.94633e-12
9.85541e-11
2.61268e-10
-1.68178e-10
5.45617e-10
-5.36328e-10
8.51673e-10
-1.01088e-09
1.17261e-09
-1.59514e-09
1.50283e-09
-2.29095e-09
1.83778e-09
-3.09898e-09
2.17371e-09
-4.01886e-09
2.50757e-09
-5.04937e-09
2.83687e-09
-6.18858e-09
3.15954e-09
-7.43397e-09
3.47391e-09
-8.78249e-09
3.77861e-09
-1.02307e-08
4.07251e-09
-1.17749e-08
4.35472e-09
-1.34109e-08
4.62448e-09
-1.51346e-08
4.88121e-09
-1.69413e-08
5.12445e-09
-1.88265e-08
5.35383e-09
-2.07854e-08
5.56909e-09
-2.28133e-08
5.77002e-09
-2.49052e-08
5.95651e-09
-2.70562e-08
6.12847e-09
-2.92614e-08
6.28588e-09
-3.15157e-08
6.42875e-09
-3.38143e-08
6.55715e-09
-3.61521e-08
6.67115e-09
-3.85243e-08
6.77086e-09
-4.09261e-08
6.85642e-09
-4.33525e-08
6.928e-09
-4.57988e-08
6.98576e-09
-4.82602e-08
7.02989e-09
-5.07323e-08
7.0606e-09
-5.32102e-08
7.07812e-09
-5.56897e-08
7.08267e-09
-5.81661e-08
7.0745e-09
-6.06352e-08
7.05384e-09
-6.30928e-08
7.02096e-09
-6.55346e-08
6.97612e-09
-6.79566e-08
6.91958e-09
-7.03548e-08
6.85163e-09
-7.27253e-08
6.77254e-09
-7.50643e-08
6.68259e-09
-7.73681e-08
6.58207e-09
-7.96331e-08
6.47127e-09
-8.18558e-08
6.35048e-09
-8.40329e-08
6.22e-09
-8.6161e-08
6.08011e-09
-8.82369e-08
5.93114e-09
-9.02576e-08
5.77336e-09
-9.22201e-08
5.6071e-09
-9.41216e-08
5.43265e-09
-9.59591e-08
5.25032e-09
-9.77302e-08
5.06043e-09
-9.94323e-08
4.86327e-09
-1.01063e-07
4.65918e-09
-1.0262e-07
4.44845e-09
-1.041e-07
4.23141e-09
-1.05503e-07
4.00838e-09
-1.06826e-07
3.77967e-09
-1.08066e-07
3.54561e-09
-1.09223e-07
3.30653e-09
-1.10294e-07
3.06274e-09
-1.11279e-07
2.81459e-09
-1.12175e-07
2.56239e-09
-1.12982e-07
2.3065e-09
-1.13698e-07
2.04723e-09
-1.14322e-07
1.78493e-09
-1.14853e-07
1.51995e-09
-1.1529e-07
1.25263e-09
-1.15634e-07
9.8331e-10
-1.15882e-07
7.12348e-10
-1.16035e-07
4.40095e-10
-1.16092e-07
1.66908e-10
-1.16054e-07
-1.06853e-10
-1.1592e-07
-3.80827e-10
-1.15689e-07
-6.54648e-10
-1.15363e-07
-9.27947e-10
-1.14942e-07
-1.20035e-09
-1.14426e-07
-1.4715e-09
-1.13816e-07
-1.74099e-09
-1.13112e-07
-2.00847e-09
-1.12315e-07
-2.27354e-09
-1.11427e-07
-2.53583e-09
-1.10448e-07
-2.79494e-09
-1.0938e-07
-3.0505e-09
-1.08223e-07
-3.3021e-09
-1.0698e-07
-3.54937e-09
-1.05653e-07
-3.7919e-09
-1.04242e-07
-4.02931e-09
-1.02751e-07
-4.2612e-09
-1.0118e-07
-4.48718e-09
-9.95327e-08
-4.70686e-09
-9.78109e-08
-4.91985e-09
-9.60172e-08
-5.12575e-09
-9.41542e-08
-5.32418e-09
-9.22247e-08
-5.51475e-09
-9.02315e-08
-5.69707e-09
-8.81776e-08
-5.87077e-09
-8.60662e-08
-6.03547e-09
-8.39006e-08
-6.1908e-09
-8.16841e-08
-6.33638e-09
-7.94204e-08
-6.47186e-09
-7.7113e-08
-6.59688e-09
-7.47657e-08
-6.71109e-09
-7.23824e-08
-6.81416e-09
-6.99672e-08
-6.90574e-09
-6.7524e-08
-6.98552e-09
-6.50572e-08
-7.05319e-09
-6.25711e-08
-7.10843e-09
-6.007e-08
-7.15098e-09
-5.75585e-08
-7.18053e-09
-5.50412e-08
-7.19685e-09
-5.25227e-08
-7.19966e-09
-5.00079e-08
-7.18876e-09
-4.75015e-08
-7.16391e-09
-4.50085e-08
-7.12493e-09
-4.25337e-08
-7.07164e-09
-4.00822e-08
-7.00388e-09
-3.76589e-08
-6.92153e-09
-3.52691e-08
-6.82448e-09
-3.29177e-08
-6.71265e-09
-3.06098e-08
-6.586e-09
-2.83505e-08
-6.4445e-09
-2.6145e-08
-6.28819e-09
-2.39981e-08
-6.11712e-09
-2.19149e-08
-5.93139e-09
-1.99003e-08
-5.73116e-09
-1.79592e-08
-5.51663e-09
-1.60963e-08
-5.28808e-09
-1.43161e-08
-5.04585e-09
-1.26231e-08
-4.79035e-09
-1.10215e-08
-4.52209e-09
-9.5153e-09
-4.2417e-09
-8.10821e-09
-3.94991e-09
-6.80361e-09
-3.64762e-09
-5.6045e-09
-3.3359e-09
-4.51339e-09
-3.016e-09
-3.53229e-09
-2.68945e-09
-2.66254e-09
-2.35805e-09
-1.90475e-09
-2.02399e-09
-1.25864e-09
-1.68988e-09
-7.22883e-10
-1.35884e-09
-2.9494e-10
-1.0347e-09
2.91661e-11
-7.22024e-10
2.55086e-10
-4.2639e-10
3.90408e-10
-1.54535e-10
4.44959e-10
8.54039e-11
4.31108e-10
2.83652e-10
3.64104e-10
4.28601e-10
2.6247e-10
5.06701e-10
1.48534e-10
5.02595e-10
4.93947e-11
3.99543e-10
1.79231e-10
4.03485e-11
-2.1864e-10
1.1404e-10
-4.62403e-10
1.85331e-10
-5.48633e-10
2.26083e-10
-5.05518e-10
2.13253e-10
-3.5644e-10
1.2789e-10
-1.21905e-10
-4.55024e-11
1.80339e-10
-3.19424e-10
5.35188e-10
-7.03726e-10
9.2992e-10
-1.20593e-09
1.35388e-09
-1.83152e-09
1.79819e-09
-2.58418e-09
2.2555e-09
-3.46608e-09
2.71967e-09
-4.47804e-09
3.18567e-09
-5.61977e-09
3.6493e-09
-6.88999e-09
4.10709e-09
-8.28663e-09
4.55618e-09
-9.80689e-09
4.99417e-09
-1.14474e-08
5.41912e-09
-1.32043e-08
5.82941e-09
-1.50733e-08
6.22371e-09
-1.70498e-08
6.60094e-09
-1.91288e-08
6.96023e-09
-2.13052e-08
7.30088e-09
-2.35737e-08
7.62234e-09
-2.59288e-08
7.92418e-09
-2.83649e-08
8.20609e-09
-3.08762e-08
8.46785e-09
-3.34571e-08
8.70933e-09
-3.61017e-08
8.93046e-09
-3.88041e-08
9.13123e-09
-4.15587e-08
9.3117e-09
-4.43595e-08
9.47196e-09
-4.72008e-08
9.61214e-09
-5.00768e-08
9.73242e-09
-5.29818e-08
9.83301e-09
-5.59102e-08
9.91413e-09
-5.88563e-08
9.97605e-09
-6.18148e-08
1.0019e-08
-6.478e-08
1.00434e-08
-6.77468e-08
1.00494e-08
-7.07098e-08
1.00375e-08
-7.36638e-08
1.00079e-08
-7.66039e-08
9.96101e-09
-7.95249e-08
9.8972e-09
-8.24222e-08
9.81684e-09
-8.52909e-08
9.72032e-09
-8.81264e-08
9.60801e-09
-9.09241e-08
9.48032e-09
-9.36797e-08
9.33764e-09
-9.63888e-08
9.1804e-09
-9.90473e-08
9.00898e-09
-1.01651e-07
8.82382e-09
-1.04196e-07
8.62533e-09
-1.06679e-07
8.41394e-09
-1.09096e-07
8.19006e-09
-1.11443e-07
7.95414e-09
-1.13717e-07
7.7066e-09
-1.15914e-07
7.44788e-09
-1.18032e-07
7.17842e-09
-1.20068e-07
6.89865e-09
-1.22018e-07
6.60903e-09
-1.23879e-07
6.31e-09
-1.2565e-07
6.00202e-09
-1.27327e-07
5.68552e-09
-1.28908e-07
5.36097e-09
-1.30391e-07
5.02883e-09
-1.31774e-07
4.68955e-09
-1.33055e-07
4.34361e-09
-1.34232e-07
3.99147e-09
-1.35303e-07
3.6336e-09
-1.36267e-07
3.27048e-09
-1.37123e-07
2.90258e-09
-1.37868e-07
2.5304e-09
-1.38503e-07
2.15441e-09
-1.39025e-07
1.77511e-09
-1.39435e-07
1.39298e-09
-1.39731e-07
1.00854e-09
-1.39913e-07
6.22275e-10
-1.39981e-07
2.347e-10
-1.39934e-07
-1.53677e-10
-1.39773e-07
-5.42341e-10
-1.39496e-07
-9.30772e-10
-1.39106e-07
-1.31845e-09
-1.38601e-07
-1.70484e-09
-1.37984e-07
-2.08942e-09
-1.37253e-07
-2.47165e-09
-1.3641e-07
-2.851e-09
-1.35457e-07
-3.22692e-09
-1.34394e-07
-3.59887e-09
-1.33223e-07
-3.9663e-09
-1.31944e-07
-4.32866e-09
-1.30561e-07
-4.68541e-09
-1.29075e-07
-5.03598e-09
-1.27487e-07
-5.37982e-09
-1.258e-07
-5.71639e-09
-1.24016e-07
-6.04511e-09
-1.22137e-07
-6.36544e-09
-1.20167e-07
-6.67683e-09
-1.18109e-07
-6.97871e-09
-1.15964e-07
-7.27053e-09
-1.13736e-07
-7.55176e-09
-1.11429e-07
-7.82183e-09
-1.09046e-07
-8.08021e-09
-1.0659e-07
-8.32637e-09
-1.04066e-07
-8.55976e-09
-1.01477e-07
-8.77987e-09
-9.88272e-08
-8.98618e-09
-9.61209e-08
-9.17817e-09
-9.33624e-08
-9.35536e-09
-9.05562e-08
-9.51725e-09
-8.7707e-08
-9.66336e-09
-8.48196e-08
-9.79322e-09
-8.18987e-08
-9.90639e-09
-7.89494e-08
-1.00024e-08
-7.5977e-08
-1.00809e-08
-7.29865e-08
-1.01414e-08
-6.99834e-08
-1.01836e-08
-6.69731e-08
-1.02071e-08
-6.39613e-08
-1.02115e-08
-6.09534e-08
-1.01966e-08
-5.79553e-08
-1.0162e-08
-5.49727e-08
-1.01075e-08
-5.20115e-08
-1.00328e-08
-4.90776e-08
-9.93779e-09
-4.61769e-08
-9.82221e-09
-4.33154e-08
-9.68596e-09
-4.04991e-08
-9.52895e-09
-3.7734e-08
-9.35111e-09
-3.50261e-08
-9.15246e-09
-3.23812e-08
-8.93305e-09
-2.98054e-08
-8.69297e-09
-2.73043e-08
-8.43241e-09
-2.48839e-08
-8.1516e-09
-2.25497e-08
-7.85086e-09
-2.03072e-08
-7.53061e-09
-1.81616e-08
-7.19136e-09
-1.61182e-08
-6.83374e-09
-1.41818e-08
-6.4585e-09
-1.2357e-08
-6.06655e-09
-1.06479e-08
-5.65898e-09
-9.05848e-09
-5.23708e-09
-7.592e-09
-4.80238e-09
-6.25129e-09
-4.3567e-09
-5.03855e-09
-3.90219e-09
-3.95519e-09
-3.44141e-09
-3.00179e-09
-2.97739e-09
-2.17793e-09
-2.51373e-09
-1.48203e-09
-2.05475e-09
-9.11161e-10
-1.60556e-09
-4.60872e-10
-1.17231e-09
-1.24944e-10
-7.62318e-10
1.04844e-10
-3.84325e-10
2.38988e-10
-4.87433e-11
2.90542e-10
2.321e-10
2.7544e-10
4.43705e-10
2.12933e-10
5.69209e-10
1.26194e-10
5.89335e-10
4.33509e-11
4.82386e-10
2.22582e-10
2.98855e-11
-2.48527e-10
7.63445e-11
-5.0886e-10
1.05105e-10
-5.77391e-10
8.84589e-11
-4.8887e-10
3.50307e-12
-2.71483e-10
-1.68721e-10
5.0321e-11
-4.43818e-10
4.55435e-10
-8.34459e-10
9.25833e-10
-1.35073e-09
1.44619e-09
-2.00041e-09
2.00356e-09
-2.78921e-09
2.587e-09
-3.72105e-09
3.18734e-09
-4.79825e-09
3.79687e-09
-6.02172e-09
4.40915e-09
-7.39118e-09
5.01877e-09
-8.9053e-09
5.62121e-09
-1.05618e-08
6.21271e-09
-1.23578e-08
6.7901e-09
-1.42894e-08
7.35078e-09
-1.63526e-08
7.89255e-09
-1.85425e-08
8.41361e-09
-2.0854e-08
8.91247e-09
-2.32817e-08
9.38793e-09
-2.58198e-08
9.839e-09
-2.84623e-08
1.02649e-08
-3.12032e-08
1.0665e-08
-3.4036e-08
1.10389e-08
-3.69543e-08
1.13862e-08
-3.99517e-08
1.17067e-08
-4.30215e-08
1.20003e-08
-4.61572e-08
1.22669e-08
-4.93521e-08
1.25066e-08
-5.25996e-08
1.27195e-08
-5.58931e-08
1.29057e-08
-5.92261e-08
1.30654e-08
-6.25919e-08
1.31989e-08
-6.59843e-08
1.33065e-08
-6.93967e-08
1.33884e-08
-7.28228e-08
1.34452e-08
-7.62564e-08
1.3477e-08
-7.96915e-08
1.34844e-08
-8.31218e-08
1.34678e-08
-8.65415e-08
1.34276e-08
-8.99448e-08
1.33643e-08
-9.3326e-08
1.32783e-08
-9.66793e-08
1.31702e-08
-9.99995e-08
1.30405e-08
-1.03281e-07
1.28896e-08
-1.06519e-07
1.27181e-08
-1.09708e-07
1.25265e-08
-1.12843e-07
1.23154e-08
-1.15919e-07
1.20853e-08
-1.18932e-07
1.18368e-08
-1.21877e-07
1.15704e-08
-1.2475e-07
1.12868e-08
-1.27546e-07
1.09863e-08
-1.30262e-07
1.06697e-08
-1.32893e-07
1.03376e-08
-1.35435e-07
9.9904e-09
-1.37886e-07
9.62881e-09
-1.40241e-07
9.25341e-09
-1.42496e-07
8.86478e-09
-1.4465e-07
8.46353e-09
-1.46698e-07
8.05025e-09
-1.48638e-07
7.62556e-09
-1.50467e-07
7.19007e-09
-1.52183e-07
6.74439e-09
-1.53782e-07
6.28914e-09
-1.55264e-07
5.82496e-09
-1.56625e-07
5.35246e-09
-1.57863e-07
4.87228e-09
-1.58978e-07
4.38507e-09
-1.59967e-07
3.89145e-09
-1.60829e-07
3.39209e-09
-1.61562e-07
2.88764e-09
-1.62165e-07
2.37875e-09
-1.62639e-07
1.8661e-09
-1.6298e-07
1.35034e-09
-1.6319e-07
8.32162e-10
-1.63268e-07
3.12238e-10
-1.63213e-07
-2.08744e-10
-1.63025e-07
-7.30092e-10
-1.62705e-07
-1.25111e-09
-1.62252e-07
-1.77109e-09
-1.61667e-07
-2.28934e-09
-1.60952e-07
-2.80513e-09
-1.60106e-07
-3.31775e-09
-1.5913e-07
-3.82647e-09
-1.58027e-07
-4.33058e-09
-1.56796e-07
-4.82935e-09
-1.5544e-07
-5.32203e-09
-1.53961e-07
-5.8079e-09
-1.5236e-07
-6.28621e-09
-1.5064e-07
-6.75623e-09
-1.48803e-07
-7.2172e-09
-1.46851e-07
-7.6684e-09
-1.44787e-07
-8.10907e-09
-1.42614e-07
-8.53847e-09
-1.40335e-07
-8.95586e-09
-1.37953e-07
-9.3605e-09
-1.35472e-07
-9.75165e-09
-1.32895e-07
-1.01286e-08
-1.30226e-07
-1.04906e-08
-1.27469e-07
-1.08369e-08
-1.24629e-07
-1.11668e-08
-1.21709e-07
-1.14796e-08
-1.18714e-07
-1.17746e-08
-1.1565e-07
-1.20512e-08
-1.12519e-07
-1.23085e-08
-1.09328e-07
-1.25461e-08
-1.06083e-07
-1.27631e-08
-1.02787e-07
-1.29591e-08
-9.94467e-08
-1.31333e-08
-9.60678e-08
-1.32852e-08
-9.2656e-08
-1.34142e-08
-8.92171e-08
-1.35198e-08
-8.57572e-08
-1.36013e-08
-8.22825e-08
-1.36584e-08
-7.87991e-08
-1.36905e-08
-7.53135e-08
-1.36972e-08
-7.18321e-08
-1.3678e-08
-6.83615e-08
-1.36326e-08
-6.49084e-08
-1.35607e-08
-6.14794e-08
-1.34619e-08
-5.80812e-08
-1.33359e-08
-5.47207e-08
-1.31827e-08
-5.14047e-08
-1.3002e-08
-4.814e-08
-1.27936e-08
-4.49335e-08
-1.25577e-08
-4.17918e-08
-1.22941e-08
-3.87219e-08
-1.2003e-08
-3.57303e-08
-1.16845e-08
-3.28238e-08
-1.1339e-08
-3.00087e-08
-1.09667e-08
-2.72915e-08
-1.05681e-08
-2.46783e-08
-1.01438e-08
-2.2175e-08
-9.69459e-09
-1.97875e-08
-9.22125e-09
-1.75212e-08
-8.72487e-09
-1.5381e-08
-8.2067e-09
-1.33718e-08
-7.66822e-09
-1.14977e-08
-7.11119e-09
-9.76236e-09
-6.53769e-09
-8.16891e-09
-5.95014e-09
-6.71968e-09
-5.35143e-09
-5.41617e-09
-4.74492e-09
-4.25897e-09
-4.13459e-09
-3.24756e-09
-3.52514e-09
-2.38021e-09
-2.9221e-09
-1.65376e-09
-2.33201e-09
-1.06348e-09
-1.76259e-09
-6.0283e-10
-1.22297e-09
-2.63259e-10
-7.23895e-10
-3.39639e-11
-2.7804e-10
9.8378e-11
9.97541e-11
1.49926e-10
3.92157e-10
1.40084e-10
5.79051e-10
9.20895e-11
6.3733e-10
3.39006e-11
5.40574e-10
2.56482e-10
1.71696e-11
-2.65695e-10
3.03272e-11
-5.22011e-10
7.73203e-12
-5.54798e-10
-7.69708e-11
-4.04167e-10
-2.45869e-10
-1.02583e-10
-5.17418e-10
3.21868e-10
-9.06902e-10
8.44921e-10
-1.42682e-09
1.44575e-09
-2.08718e-09
2.10656e-09
-2.89575e-09
2.81212e-09
-3.85826e-09
3.54952e-09
-4.97868e-09
4.30775e-09
-6.25933e-09
5.07752e-09
-7.70113e-09
5.85095e-09
-9.30373e-09
6.62137e-09
-1.10657e-08
7.38318e-09
-1.29846e-08
8.13164e-09
-1.50573e-08
8.86276e-09
-1.72797e-08
9.57319e-09
-1.96473e-08
1.02601e-08
-2.21549e-08
1.09212e-08
-2.4797e-08
1.15546e-08
-2.75677e-08
1.21586e-08
-3.04606e-08
1.27319e-08
-3.34692e-08
1.32735e-08
-3.65866e-08
1.37825e-08
-3.98061e-08
1.42583e-08
-4.31204e-08
1.47005e-08
-4.65224e-08
1.51087e-08
-5.00048e-08
1.54827e-08
-5.35602e-08
1.58224e-08
-5.71814e-08
1.61278e-08
-6.08609e-08
1.6399e-08
-6.45914e-08
1.66362e-08
-6.83656e-08
1.68395e-08
-7.21762e-08
1.70094e-08
-7.60159e-08
1.71462e-08
-7.98777e-08
1.72502e-08
-8.37544e-08
1.73219e-08
-8.7639e-08
1.73617e-08
-9.15248e-08
1.73702e-08
-9.54048e-08
1.73479e-08
-9.92725e-08
1.72953e-08
-1.03121e-07
1.72131e-08
-1.06945e-07
1.71018e-08
-1.10736e-07
1.6962e-08
-1.1449e-07
1.67945e-08
-1.18201e-07
1.65997e-08
-1.21861e-07
1.63786e-08
-1.25466e-07
1.61316e-08
-1.2901e-07
1.58594e-08