/*--------------------------------*- C++ -*----------------------------------*\
  =========                 |
  \\      /  F ield         | OpenFOAM: The Open Source CFD Toolbox
   \\    /   O peration     | Website:  https://openfoam.org
    \\  /    A nd           | Version:  7
     \\/     M anipulation  |
\*---------------------------------------------------------------------------*/
FoamFile
{
    version     2.0;
    format      ascii;
    class       volVectorField;
    location    "0.275";
    object      U;
}
// * * * * * * * * * * * * * * * * * * * * * * * * * * * * * * * * * * * * * //

dimensions      [0 1 -1 0 0 0 0];

internalField   nonuniform List<vector> 
25600
(
(1.93634e-07 -1.92335e-07 0)
(2.86048e-06 -1.78731e-06 0)
(9.08856e-06 -2.83086e-06 0)
(1.69335e-05 -3.20513e-06 0)
(2.48879e-05 -3.12125e-06 0)
(3.19979e-05 -2.74327e-06 0)
(3.76117e-05 -2.17832e-06 0)
(4.12795e-05 -1.49772e-06 0)
(4.27021e-05 -7.47509e-07 0)
(4.16871e-05 4.142e-08 0)
(3.81164e-05 8.48787e-07 0)
(3.19284e-05 1.66072e-06 0)
(2.31014e-05 2.46693e-06 0)
(1.1645e-05 3.26029e-06 0)
(-2.40771e-06 4.03534e-06 0)
(-1.90057e-05 4.78804e-06 0)
(-3.80833e-05 5.51566e-06 0)
(-5.95641e-05 6.21591e-06 0)
(-8.33635e-05 6.88713e-06 0)
(-0.00010939 7.52816e-06 0)
(-0.000137547 8.13818e-06 0)
(-0.000167735 8.71643e-06 0)
(-0.00019985 9.26259e-06 0)
(-0.000233786 9.77666e-06 0)
(-0.000269438 1.02583e-05 0)
(-0.000306696 1.07076e-05 0)
(-0.000345455 1.11249e-05 0)
(-0.000385604 1.15103e-05 0)
(-0.000427037 1.1864e-05 0)
(-0.000469645 1.21864e-05 0)
(-0.000513323 1.24778e-05 0)
(-0.000557965 1.27387e-05 0)
(-0.000603466 1.29695e-05 0)
(-0.000649724 1.31708e-05 0)
(-0.000696636 1.3343e-05 0)
(-0.000744102 1.34866e-05 0)
(-0.000792024 1.36021e-05 0)
(-0.000840304 1.36902e-05 0)
(-0.000888848 1.37513e-05 0)
(-0.000937561 1.37859e-05 0)
(-0.000986353 1.37947e-05 0)
(-0.00103513 1.37784e-05 0)
(-0.00108381 1.37375e-05 0)
(-0.00113231 1.36724e-05 0)
(-0.00118053 1.35838e-05 0)
(-0.00122841 1.34724e-05 0)
(-0.00127585 1.33388e-05 0)
(-0.00132278 1.31833e-05 0)
(-0.00136913 1.30068e-05 0)
(-0.00141483 1.28098e-05 0)
(-0.00145979 1.2593e-05 0)
(-0.00150395 1.23568e-05 0)
(-0.00154724 1.21018e-05 0)
(-0.0015896 1.18288e-05 0)
(-0.00163097 1.15383e-05 0)
(-0.00167127 1.12309e-05 0)
(-0.00171046 1.09071e-05 0)
(-0.00174848 1.05676e-05 0)
(-0.00178527 1.0213e-05 0)
(-0.00182078 9.84391e-06 0)
(-0.00185495 9.46081e-06 0)
(-0.00188775 9.06435e-06 0)
(-0.00191912 8.65524e-06 0)
(-0.00194901 8.23402e-06 0)
(-0.0019774 7.80128e-06 0)
(-0.00200423 7.35758e-06 0)
(-0.00202947 6.90357e-06 0)
(-0.00205308 6.43994e-06 0)
(-0.00207503 5.96724e-06 0)
(-0.0020953 5.48603e-06 0)
(-0.00211384 4.997e-06 0)
(-0.00213064 4.50081e-06 0)
(-0.00214566 3.99807e-06 0)
(-0.0021589 3.48938e-06 0)
(-0.00217032 2.97544e-06 0)
(-0.00217991 2.45686e-06 0)
(-0.00218766 1.9343e-06 0)
(-0.00219355 1.40845e-06 0)
(-0.00219757 8.79978e-07 0)
(-0.00219971 3.49527e-07 0)
(-0.00219997 -1.82204e-07 0)
(-0.00219835 -7.14517e-07 0)
(-0.00219484 -1.24673e-06 0)
(-0.00218945 -1.77811e-06 0)
(-0.00218218 -2.30797e-06 0)
(-0.00217304 -2.83563e-06 0)
(-0.00216203 -3.36032e-06 0)
(-0.00214918 -3.8813e-06 0)
(-0.00213448 -4.39786e-06 0)
(-0.00211797 -4.9093e-06 0)
(-0.00209967 -5.41482e-06 0)
(-0.00207958 -5.91362e-06 0)
(-0.00205775 -6.405e-06 0)
(-0.00203419 -6.88824e-06 0)
(-0.00200894 -7.36254e-06 0)
(-0.00198203 -7.82708e-06 0)
(-0.0019535 -8.28114e-06 0)
(-0.00192339 -8.72393e-06 0)
(-0.00189173 -9.15464e-06 0)
(-0.00185858 -9.57253e-06 0)
(-0.00182397 -9.97685e-06 0)
(-0.00178797 -1.03668e-05 0)
(-0.00175061 -1.07416e-05 0)
(-0.00171197 -1.11004e-05 0)
(-0.00167209 -1.14426e-05 0)
(-0.00163103 -1.17673e-05 0)
(-0.00158886 -1.20737e-05 0)
(-0.00154565 -1.23611e-05 0)
(-0.00150146 -1.26289e-05 0)
(-0.00145637 -1.28762e-05 0)
(-0.00141044 -1.31024e-05 0)
(-0.00136376 -1.33065e-05 0)
(-0.0013164 -1.34881e-05 0)
(-0.00126844 -1.36464e-05 0)
(-0.00121997 -1.37808e-05 0)
(-0.00117108 -1.38905e-05 0)
(-0.00112184 -1.39749e-05 0)
(-0.00107235 -1.40334e-05 0)
(-0.0010227 -1.40656e-05 0)
(-0.000972994 -1.40706e-05 0)
(-0.000923314 -1.4048e-05 0)
(-0.000873763 -1.39972e-05 0)
(-0.00082444 -1.39178e-05 0)
(-0.000775446 -1.38093e-05 0)
(-0.000726883 -1.36712e-05 0)
(-0.000678854 -1.35031e-05 0)
(-0.000631464 -1.33047e-05 0)
(-0.000584819 -1.30756e-05 0)
(-0.000539025 -1.28155e-05 0)
(-0.000494191 -1.25241e-05 0)
(-0.000450422 -1.22013e-05 0)
(-0.000407828 -1.18469e-05 0)
(-0.000366517 -1.14607e-05 0)
(-0.000326596 -1.10428e-05 0)
(-0.000288174 -1.05932e-05 0)
(-0.000251356 -1.0112e-05 0)
(-0.000216249 -9.59938e-06 0)
(-0.000182956 -9.05562e-06 0)
(-0.000151579 -8.48125e-06 0)
(-0.000122217 -7.87683e-06 0)
(-9.49673e-05 -7.24312e-06 0)
(-6.99202e-05 -6.58113e-06 0)
(-4.71626e-05 -5.89214e-06 0)
(-2.67746e-05 -5.17774e-06 0)
(-8.8284e-06 -4.44e-06 0)
(6.61354e-06 -3.68156e-06 0)
(1.9501e-05 -2.90578e-06 0)
(2.9799e-05 -2.11707e-06 0)
(3.7492e-05 -1.32118e-06 0)
(4.25891e-05 -5.25847e-07 0)
(4.51313e-05 2.58463e-07 0)
(4.52014e-05 1.01719e-06 0)
(4.2938e-05 1.72951e-06 0)
(3.85552e-05 2.36476e-06 0)
(3.23726e-05 2.87662e-06 0)
(2.48577e-05 3.19479e-06 0)
(1.66765e-05 3.21471e-06 0)
(8.78039e-06 2.78006e-06 0)
(2.64483e-06 1.69817e-06 0)
(1.227e-07 1.23659e-07 0)
(1.78572e-06 -2.85767e-06 0)
(9.39731e-06 -9.39882e-06 0)
(2.31463e-05 -1.341e-05 0)
(3.93769e-05 -1.47197e-05 0)
(5.52451e-05 -1.39531e-05 0)
(6.8758e-05 -1.16828e-05 0)
(7.83764e-05 -8.35003e-06 0)
(8.29443e-05 -4.28428e-06 0)
(8.16297e-05 2.74199e-07 0)
(7.38548e-05 5.15011e-06 0)
(5.92376e-05 1.02155e-05 0)
(3.75453e-05 1.53743e-05 0)
(8.66318e-06 2.05542e-05 0)
(-2.74324e-05 2.57e-05 0)
(-7.06936e-05 3.07687e-05 0)
(-0.000121015 3.57279e-05 0)
(-0.000178245 4.05518e-05 0)
(-0.0002422 4.52202e-05 0)
(-0.000312664 4.97176e-05 0)
(-0.000389399 5.40319e-05 0)
(-0.000472153 5.81534e-05 0)
(-0.000560655 6.20752e-05 0)
(-0.000654625 6.5792e-05 0)
(-0.000753776 6.92999e-05 0)
(-0.000857812 7.25963e-05 0)
(-0.000966437 7.56797e-05 0)
(-0.00107935 7.85496e-05 0)
(-0.00119624 8.12057e-05 0)
(-0.00131681 8.36487e-05 0)
(-0.00144076 8.58801e-05 0)
(-0.00156778 8.79011e-05 0)
(-0.00169757 8.97137e-05 0)
(-0.00182984 9.13203e-05 0)
(-0.00196429 9.27237e-05 0)
(-0.00210063 9.39264e-05 0)
(-0.00223857 9.49312e-05 0)
(-0.00237783 9.57417e-05 0)
(-0.00251813 9.63612e-05 0)
(-0.00265919 9.6793e-05 0)
(-0.00280075 9.70405e-05 0)
(-0.00294254 9.71076e-05 0)
(-0.00308429 9.69983e-05 0)
(-0.00322576 9.67159e-05 0)
(-0.0033667 9.62645e-05 0)
(-0.00350686 9.56481e-05 0)
(-0.00364601 9.48708e-05 0)
(-0.00378391 9.39363e-05 0)
(-0.00392033 9.28487e-05 0)
(-0.00405506 9.16122e-05 0)
(-0.00418788 9.0231e-05 0)
(-0.00431859 8.8709e-05 0)
(-0.00444697 8.70503e-05 0)
(-0.00457284 8.52591e-05 0)
(-0.004696 8.33398e-05 0)
(-0.00481626 8.12963e-05 0)
(-0.00493345 7.91328e-05 0)
(-0.0050474 7.68536e-05 0)
(-0.00515794 7.44628e-05 0)
(-0.00526491 7.19648e-05 0)
(-0.00536815 6.93637e-05 0)
(-0.00546752 6.66637e-05 0)
(-0.00556287 6.3869e-05 0)
(-0.00565407 6.09842e-05 0)
(-0.00574099 5.80134e-05 0)
(-0.00582351 5.49609e-05 0)
(-0.00590152 5.18309e-05 0)
(-0.00597489 4.86281e-05 0)
(-0.00604353 4.53566e-05 0)
(-0.00610734 4.2021e-05 0)
(-0.00616623 3.86256e-05 0)
(-0.00622012 3.51748e-05 0)
(-0.00626892 3.16734e-05 0)
(-0.00631257 2.81257e-05 0)
(-0.006351 2.45363e-05 0)
(-0.00638416 2.09099e-05 0)
(-0.00641199 1.72511e-05 0)
(-0.00643446 1.35645e-05 0)
(-0.00645152 9.85503e-06 0)
(-0.00646314 6.12737e-06 0)
(-0.0064693 2.3863e-06 0)
(-0.00646999 -1.36331e-06 0)
(-0.0064652 -5.11649e-06 0)
(-0.00645493 -8.86832e-06 0)
(-0.00643917 -1.26138e-05 0)
(-0.00641796 -1.6348e-05 0)
(-0.0063913 -2.00656e-05 0)
(-0.00635922 -2.37616e-05 0)
(-0.00632176 -2.74309e-05 0)
(-0.00627897 -3.10682e-05 0)
(-0.0062309 -3.46683e-05 0)
(-0.0061776 -3.82258e-05 0)
(-0.00611914 -4.17356e-05 0)
(-0.00605559 -4.51921e-05 0)
(-0.00598705 -4.85901e-05 0)
(-0.00591359 -5.19243e-05 0)
(-0.00583531 -5.5189e-05 0)
(-0.00575233 -5.8379e-05 0)
(-0.00566475 -6.14888e-05 0)
(-0.0055727 -6.4513e-05 0)
(-0.0054763 -6.7446e-05 0)
(-0.0053757 -7.02826e-05 0)
(-0.00527103 -7.30173e-05 0)
(-0.00516246 -7.56446e-05 0)
(-0.00505014 -7.81592e-05 0)
(-0.00493424 -8.05558e-05 0)
(-0.00481494 -8.2829e-05 0)
(-0.00469243 -8.49736e-05 0)
(-0.00456688 -8.69843e-05 0)
(-0.00443851 -8.88561e-05 0)
(-0.00430752 -9.0584e-05 0)
(-0.00417413 -9.21629e-05 0)
(-0.00403855 -9.35878e-05 0)
(-0.00390101 -9.48541e-05 0)
(-0.00376174 -9.59571e-05 0)
(-0.003621 -9.68922e-05 0)
(-0.00347902 -9.7655e-05 0)
(-0.00333606 -9.82412e-05 0)
(-0.00319238 -9.86467e-05 0)
(-0.00304824 -9.88675e-05 0)
(-0.00290391 -9.88998e-05 0)
(-0.00275968 -9.87399e-05 0)
(-0.00261582 -9.83846e-05 0)
(-0.00247262 -9.78307e-05 0)
(-0.00233037 -9.70751e-05 0)
(-0.00218936 -9.61153e-05 0)
(-0.00204988 -9.49487e-05 0)
(-0.00191225 -9.35732e-05 0)
(-0.00177675 -9.1987e-05 0)
(-0.0016437 -9.01887e-05 0)
(-0.0015134 -8.8177e-05 0)
(-0.00138615 -8.59514e-05 0)
(-0.00126227 -8.35115e-05 0)
(-0.00114206 -8.08576e-05 0)
(-0.00102582 -7.79904e-05 0)
(-0.000913863 -7.49115e-05 0)
(-0.000806478 -7.16229e-05 0)
(-0.000703961 -6.81274e-05 0)
(-0.000606603 -6.44289e-05 0)
(-0.000514682 -6.05326e-05 0)
(-0.000428469 -5.64445e-05 0)
(-0.000348224 -5.21727e-05 0)
(-0.000274193 -4.77266e-05 0)
(-0.000206601 -4.31182e-05 0)
(-0.000145655 -3.83622e-05 0)
(-9.15347e-05 -3.34768e-05 0)
(-4.43888e-05 -2.84846e-05 0)
(-4.32636e-06 -2.34136e-05 0)
(2.85914e-05 -1.82991e-05 0)
(5.43626e-05 -1.31858e-05 0)
(7.30598e-05 -8.13103e-06 0)
(8.48491e-05 -3.20864e-06 0)
(9.00143e-05 1.48443e-06 0)
(8.899e-05 5.81929e-06 0)
(8.24036e-05 9.62215e-06 0)
(7.11313e-05 1.26564e-05 0)
(5.63656e-05 1.46012e-05 0)
(3.96643e-05 1.5033e-05 0)
(2.30111e-05 1.34135e-05 0)
(9.18169e-06 9.18577e-06 0)
(1.69488e-06 2.64467e-06 0)
(2.82726e-06 -9.08271e-06 0)
(1.341e-05 -2.31502e-05 0)
(3.10667e-05 -3.10533e-05 0)
(5.08225e-05 -3.3113e-05 0)
(6.90798e-05 -3.04272e-05 0)
(8.32779e-05 -2.40918e-05 0)
(9.13349e-05 -1.50351e-05 0)
(9.16101e-05 -4.00282e-06 0)
(8.2871e-05 8.42415e-06 0)
(6.42247e-05 2.17993e-05 0)
(3.50493e-05 3.57775e-05 0)
(-5.05541e-06 5.00929e-05 0)
(-5.63125e-05 6.4538e-05 0)
(-0.000118803 7.89503e-05 0)
(-0.00019249 9.32026e-05 0)
(-0.000277247 0.000107194 0)
(-0.00037287 0.000120844 0)
(-0.000479095 0.000134091 0)
(-0.00059561 0.000146882 0)
(-0.000722061 0.000159178 0)
(-0.000858063 0.000170948 0)
(-0.00100321 0.000182168 0)
(-0.00115706 0.000192817 0)
(-0.00131918 0.000202883 0)
(-0.00148911 0.000212354 0)
(-0.00166637 0.000221225 0)
(-0.00185049 0.00022949 0)
(-0.00204101 0.000237148 0)
(-0.00223742 0.000244198 0)
(-0.00243926 0.000250643 0)
(-0.00264603 0.000256486 0)
(-0.00285727 0.000261731 0)
(-0.00307249 0.000266383 0)
(-0.00329123 0.000270449 0)
(-0.00351301 0.000273937 0)
(-0.00373738 0.000276853 0)
(-0.00396387 0.000279207 0)
(-0.00419204 0.000281007 0)
(-0.00442144 0.000282264 0)
(-0.00465164 0.000282986 0)
(-0.0048822 0.000283184 0)
(-0.00511272 0.000282869 0)
(-0.00534277 0.000282051 0)
(-0.00557195 0.00028074 0)
(-0.00579988 0.00027895 0)
(-0.00602615 0.000276689 0)
(-0.0062504 0.000273971 0)
(-0.00647225 0.000270807 0)
(-0.00669136 0.000267207 0)
(-0.00690736 0.000263185 0)
(-0.00711992 0.000258752 0)
(-0.00732871 0.000253919 0)
(-0.00753341 0.0002487 0)
(-0.00773371 0.000243105 0)
(-0.0079293 0.000237148 0)
(-0.0081199 0.00023084 0)
(-0.00830523 0.000224193 0)
(-0.00848501 0.00021722 0)
(-0.00865897 0.000209933 0)
(-0.00882688 0.000202344 0)
(-0.00898849 0.000194466 0)
(-0.00914356 0.000186312 0)
(-0.00929189 0.000177893 0)
(-0.00943325 0.000169223 0)
(-0.00956744 0.000160313 0)
(-0.00969428 0.000151178 0)
(-0.00981359 0.000141829 0)
(-0.0099252 0.00013228 0)
(-0.0100289 0.000122543 0)
(-0.0101247 0.000112632 0)
(-0.0102123 0.000102559 0)
(-0.0102916 9.23375e-05 0)
(-0.0103625 8.19815e-05 0)
(-0.010425 7.15041e-05 0)
(-0.0104789 6.09188e-05 0)
(-0.0105241 5.02393e-05 0)
(-0.0105605 3.94793e-05 0)
(-0.0105882 2.86527e-05 0)
(-0.010607 1.77736e-05 0)
(-0.0106169 6.85605e-06 0)
(-0.010618 -4.08568e-06 0)
(-0.0106101 -1.50372e-05 0)
(-0.0105933 -2.59839e-05 0)
(-0.0105676 -3.69113e-05 0)
(-0.010533 -4.78046e-05 0)
(-0.0104895 -5.86488e-05 0)
(-0.0104373 -6.94289e-05 0)
(-0.0103763 -8.013e-05 0)
(-0.0103066 -9.07366e-05 0)
(-0.0102283 -0.000101234 0)
(-0.0101416 -0.000111605 0)
(-0.0100464 -0.000121837 0)
(-0.00994299 -0.000131912 0)
(-0.00983145 -0.000141815 0)
(-0.00971193 -0.00015153 0)
(-0.00958459 -0.000161042 0)
(-0.00944959 -0.000170335 0)
(-0.00930714 -0.000179394 0)
(-0.00915742 -0.000188201 0)
(-0.00900064 -0.000196742 0)
(-0.00883704 -0.000205 0)
(-0.00866685 -0.00021296 0)
(-0.00849031 -0.000220607 0)
(-0.00830769 -0.000227924 0)
(-0.00811927 -0.000234897 0)
(-0.00792533 -0.000241509 0)
(-0.00772617 -0.000247746 0)
(-0.0075221 -0.000253593 0)
(-0.00731345 -0.000259035 0)
(-0.00710055 -0.000264057 0)
(-0.00688375 -0.000268645 0)
(-0.0066634 -0.000272785 0)
(-0.00643989 -0.000276463 0)
(-0.00621358 -0.000279666 0)
(-0.00598486 -0.000282381 0)
(-0.00575415 -0.000284595 0)
(-0.00552184 -0.000286296 0)
(-0.00528837 -0.000287472 0)
(-0.00505415 -0.000288113 0)
(-0.00481963 -0.000288207 0)
(-0.00458525 -0.000287744 0)
(-0.00435146 -0.000286715 0)
(-0.00411874 -0.000285112 0)
(-0.00388753 -0.000282926 0)
(-0.00365832 -0.000280149 0)
(-0.00343158 -0.000276776 0)
(-0.0032078 -0.000272801 0)
(-0.00298746 -0.000268219 0)
(-0.00277104 -0.000263027 0)
(-0.00255904 -0.000257223 0)
(-0.00235194 -0.000250806 0)
(-0.00215024 -0.000243776 0)
(-0.00195441 -0.000236134 0)
(-0.00176496 -0.000227886 0)
(-0.00158234 -0.000219036 0)
(-0.00140704 -0.000209592 0)
(-0.00123951 -0.000199566 0)
(-0.00108022 -0.00018897 0)
(-0.000929581 -0.000177821 0)
(-0.000788029 -0.00016614 0)
(-0.000655958 -0.000153954 0)
(-0.00053374 -0.000141293 0)
(-0.000421718 -0.000128196 0)
(-0.000320195 -0.000114709 0)
(-0.000229431 -0.000100891 0)
(-0.000149633 -8.68106e-05 0)
(-8.09401e-05 -7.25545e-05 0)
(-2.34147e-05 -5.82293e-05 0)
(2.29789e-05 -4.39677e-05 0)
(5.83941e-05 -2.99361e-05 0)
(8.31291e-05 -1.63449e-05 0)
(9.766e-05 -3.46148e-06 0)
(0.000102682 8.37155e-06 0)
(9.91578e-05 1.8713e-05 0)
(8.8381e-05 2.69956e-05 0)
(7.20379e-05 3.24994e-05 0)
(5.22331e-05 3.43412e-05 0)
(3.15131e-05 3.15026e-05 0)
(1.34123e-05 2.30124e-05 0)
(2.7761e-06 8.77503e-06 0)
(3.20662e-06 -1.69324e-05 0)
(1.47489e-05 -3.93987e-05 0)
(3.31968e-05 -5.08222e-05 0)
(5.26875e-05 -5.25681e-05 0)
(6.91165e-05 -4.63719e-05 0)
(7.95732e-05 -3.39091e-05 0)
(8.16452e-05 -1.664e-05 0)
(7.33827e-05 4.22195e-06 0)
(5.32802e-05 2.76975e-05 0)
(2.021e-05 5.30033e-05 0)
(-2.66362e-05 7.95182e-05 0)
(-8.78019e-05 0.000106749 0)
(-0.00016361 0.000134303 0)
(-0.000254202 0.000161868 0)
(-0.000359566 0.000189193 0)
(-0.000479569 0.000216077 0)
(-0.000613976 0.000242359 0)
(-0.000762466 0.000267909 0)
(-0.00092465 0.000292623 0)
(-0.00110009 0.000316417 0)
(-0.00128828 0.000339223 0)
(-0.0014887 0.000360989 0)
(-0.00170079 0.000381674 0)
(-0.00192397 0.000401245 0)
(-0.00215764 0.000419678 0)
(-0.00240116 0.000436957 0)
(-0.00265393 0.000453069 0)
(-0.0029153 0.000468008 0)
(-0.00318463 0.000481772 0)
(-0.00346127 0.000494362 0)
(-0.00374459 0.000505782 0)
(-0.00403393 0.000516039 0)
(-0.00432866 0.000525141 0)
(-0.00462814 0.0005331 0)
(-0.00493174 0.000539928 0)
(-0.00523883 0.000545641 0)
(-0.0055488 0.000550252 0)
(-0.00586103 0.00055378 0)
(-0.00617493 0.00055624 0)
(-0.0064899 0.000557653 0)
(-0.00680536 0.000558038 0)
(-0.00712074 0.000557413 0)
(-0.00743548 0.0005558 0)
(-0.00774903 0.000553221 0)
(-0.00806084 0.000549695 0)
(-0.0083704 0.000545245 0)
(-0.00867718 0.000539894 0)
(-0.00898069 0.000533663 0)
(-0.00928044 0.000526576 0)
(-0.00957594 0.000518655 0)
(-0.00986674 0.000509924 0)
(-0.0101524 0.000500405 0)
(-0.0104324 0.000490123 0)
(-0.0107064 0.000479102 0)
(-0.010974 0.000467363 0)
(-0.0112348 0.000454933 0)
(-0.0114883 0.000441834 0)
(-0.0117342 0.000428092 0)
(-0.0119722 0.000413729 0)
(-0.0122019 0.000398771 0)
(-0.012423 0.000383242 0)
(-0.0126352 0.000367167 0)
(-0.012838 0.000350571 0)
(-0.0130314 0.000333477 0)
(-0.013215 0.000315912 0)
(-0.0133885 0.000297901 0)
(-0.0135517 0.000279469 0)
(-0.0137043 0.00026064 0)
(-0.0138462 0.000241442 0)
(-0.0139771 0.0002219 0)
(-0.0140969 0.000202039 0)
(-0.0142053 0.000181886 0)
(-0.0143023 0.000161467 0)
(-0.0143877 0.00014081 0)
(-0.0144613 0.00011994 0)
(-0.014523 9.88845e-05 0)
(-0.0145728 7.76713e-05 0)
(-0.0146105 5.63276e-05 0)
(-0.0146362 3.48811e-05 0)
(-0.0146497 1.33597e-05 0)
(-0.014651 -8.20836e-06 0)
(-0.0146401 -2.97946e-05 0)
(-0.014617 -5.13703e-05 0)
(-0.0145817 -7.29066e-05 0)
(-0.0145343 -9.43744e-05 0)
(-0.0144747 -0.000115744 0)
(-0.0144031 -0.000136986 0)
(-0.0143196 -0.000158071 0)
(-0.0142241 -0.000178968 0)
(-0.014117 -0.000199648 0)
(-0.0139982 -0.000220079 0)
(-0.0138679 -0.000240232 0)
(-0.0137264 -0.000260075 0)
(-0.0135737 -0.000279578 0)
(-0.0134102 -0.00029871 0)
(-0.0132359 -0.00031744 0)
(-0.0130512 -0.000335736 0)
(-0.0128563 -0.000353569 0)
(-0.0126515 -0.000370906 0)
(-0.012437 -0.000387716 0)
(-0.0122132 -0.000403969 0)
(-0.0119804 -0.000419634 0)
(-0.011739 -0.00043468 0)
(-0.0114892 -0.000449077 0)
(-0.0112315 -0.000462793 0)
(-0.0109663 -0.0004758 0)
(-0.010694 -0.000488068 0)
(-0.0104149 -0.000499566 0)
(-0.0101296 -0.000510267 0)
(-0.00983854 -0.000520142 0)
(-0.00954211 -0.000529163 0)
(-0.00924085 -0.000537302 0)
(-0.00893526 -0.000544533 0)
(-0.00862585 -0.00055083 0)
(-0.00831316 -0.000556168 0)
(-0.00799773 -0.000560522 0)
(-0.00768013 -0.000563869 0)
(-0.00736092 -0.000566186 0)
(-0.00704069 -0.000567451 0)
(-0.00672003 -0.000567645 0)
(-0.00639955 -0.000566748 0)
(-0.00607987 -0.000564742 0)
(-0.0057616 -0.000561611 0)
(-0.00544538 -0.000557339 0)
(-0.00513185 -0.000551914 0)
(-0.00482166 -0.000545323 0)
(-0.00451545 -0.000537557 0)
(-0.00421388 -0.000528608 0)
(-0.00391761 -0.000518471 0)
(-0.00362729 -0.000507142 0)
(-0.00334359 -0.000494621 0)
(-0.00306716 -0.00048091 0)
(-0.00279865 -0.000466016 0)
(-0.0025387 -0.000449948 0)
(-0.00228796 -0.000432718 0)
(-0.00204705 -0.000414346 0)
(-0.00181658 -0.000394854 0)
(-0.00159714 -0.000374272 0)
(-0.00138932 -0.000352637 0)
(-0.00119366 -0.000329994 0)
(-0.00101067 -0.000306396 0)
(-0.000840829 -0.000281911 0)
(-0.000684581 -0.000256617 0)
(-0.000542303 -0.000230612 0)
(-0.000414316 -0.000204012 0)
(-0.000300864 -0.000176959 0)
(-0.000202102 -0.000149626 0)
(-0.000118077 -0.000122223 0)
(-4.87109e-05 -9.501e-05 0)
(6.2301e-06 -6.83061e-05 0)
(4.71631e-05 -4.25076e-05 0)
(7.47251e-05 -1.81076e-05 0)
(8.98158e-05 4.27829e-06 0)
(9.3646e-05 2.38819e-05 0)
(8.77952e-05 3.97497e-05 0)
(7.42685e-05 5.07152e-05 0)
(5.5507e-05 5.5395e-05 0)
(3.44148e-05 5.22346e-05 0)
(1.50537e-05 3.96813e-05 0)
(3.21336e-06 1.66697e-05 0)
(3.13368e-06 -2.49086e-05 0)
(1.40372e-05 -5.53367e-05 0)
(3.06471e-05 -6.91598e-05 0)
(4.67253e-05 -6.90339e-05 0)
(5.78887e-05 -5.74707e-05 0)
(6.10046e-05 -3.67733e-05 0)
(5.34651e-05 -8.95107e-06 0)
(3.31356e-05 2.43036e-05 0)
(-1.66449e-06 6.15897e-05 0)
(-5.22192e-05 0.000101763 0)
(-0.000119472 0.000143894 0)
(-0.000204075 0.000187227 0)
(-0.000306431 0.000231153 0)
(-0.000426734 0.000275176 0)
(-0.000564998 0.000318894 0)
(-0.000721092 0.000361981 0)
(-0.000894759 0.000404169 0)
(-0.00108564 0.000445243 0)
(-0.00129328 0.000485026 0)
(-0.00151716 0.000523376 0)
(-0.00175671 0.000560177 0)
(-0.00201129 0.000595337 0)
(-0.00228024 0.000628781 0)
(-0.00256285 0.000660454 0)
(-0.00285839 0.00069031 0)
(-0.00316611 0.000718316 0)
(-0.00348525 0.00074445 0)
(-0.00381503 0.000768696 0)
(-0.00415466 0.000791048 0)
(-0.00450335 0.000811504 0)
(-0.0048603 0.000830066 0)
(-0.00522473 0.000846745 0)
(-0.00559584 0.000861551 0)
(-0.00597284 0.000874501 0)
(-0.00635495 0.000885613 0)
(-0.00674139 0.00089491 0)
(-0.0071314 0.000902414 0)
(-0.00752421 0.00090815 0)
(-0.00791907 0.000912148 0)
(-0.00831525 0.000914436 0)
(-0.00871202 0.000915044 0)
(-0.00910867 0.000914003 0)
(-0.00950449 0.000911347 0)
(-0.00989879 0.000907109 0)
(-0.0102909 0.000901323 0)
(-0.0106802 0.000894025 0)
(-0.0110659 0.00088525 0)
(-0.0114476 0.000875035 0)
(-0.0118245 0.000863416 0)
(-0.0121961 0.00085043 0)
(-0.0125617 0.000836116 0)
(-0.0129209 0.000820511 0)
(-0.013273 0.000803653 0)
(-0.0136175 0.000785582 0)
(-0.013954 0.000766335 0)
(-0.0142818 0.000745952 0)
(-0.0146006 0.000724472 0)
(-0.0149098 0.000701936 0)
(-0.0152091 0.000678381 0)
(-0.0154979 0.00065385 0)
(-0.0157758 0.000628381 0)
(-0.0160425 0.000602015 0)
(-0.0162976 0.000574793 0)
(-0.0165407 0.000546756 0)
(-0.0167714 0.000517944 0)
(-0.0169895 0.0004884 0)
(-0.0171947 0.000458165 0)
(-0.0173865 0.00042728 0)
(-0.0175648 0.000395788 0)
(-0.0177294 0.000363732 0)
(-0.0178799 0.000331153 0)
(-0.0180162 0.000298096 0)
(-0.018138 0.000264604 0)
(-0.0182452 0.000230719 0)
(-0.0183377 0.000196488 0)
(-0.0184152 0.000161953 0)
(-0.0184777 0.00012716 0)
(-0.018525 9.21539e-05 0)
(-0.0185572 5.69806e-05 0)
(-0.018574 2.16858e-05 0)
(-0.0185755 -1.3684e-05 0)
(-0.0185617 -4.90821e-05 0)
(-0.0185325 -8.44614e-05 0)
(-0.018488 -0.000119774 0)
(-0.0184283 -0.000154973 0)
(-0.0183533 -0.000190009 0)
(-0.0182631 -0.000224833 0)
(-0.018158 -0.000259398 0)
(-0.0180379 -0.000293653 0)
(-0.017903 -0.000327549 0)
(-0.0177536 -0.000361036 0)
(-0.0175897 -0.000394064 0)
(-0.0174117 -0.000426583 0)
(-0.0172197 -0.000458542 0)
(-0.017014 -0.000489891 0)
(-0.0167949 -0.000520578 0)
(-0.0165626 -0.000550554 0)
(-0.0163176 -0.000579766 0)
(-0.01606 -0.000608165 0)
(-0.0157904 -0.0006357 0)
(-0.0155091 -0.000662319 0)
(-0.0152164 -0.000687973 0)
(-0.0149129 -0.000712612 0)
(-0.014599 -0.000736186 0)
(-0.0142751 -0.000758645 0)
(-0.0139417 -0.00077994 0)
(-0.0135994 -0.000800024 0)
(-0.0132487 -0.000818848 0)
(-0.0128902 -0.000836365 0)
(-0.0125243 -0.00085253 0)
(-0.0121518 -0.000867297 0)
(-0.0117732 -0.000880621 0)
(-0.0113892 -0.00089246 0)
(-0.0110003 -0.000902771 0)
(-0.0106074 -0.000911514 0)
(-0.0102109 -0.000918649 0)
(-0.00981179 -0.000924139 0)
(-0.00941061 -0.000927947 0)
(-0.00900812 -0.000930039 0)
(-0.00860507 -0.000930382 0)
(-0.00820221 -0.000928946 0)
(-0.00780032 -0.000925702 0)
(-0.00740017 -0.000920625 0)
(-0.00700254 -0.000913692 0)
(-0.00660824 -0.000904881 0)
(-0.00621806 -0.000894175 0)
(-0.00583281 -0.00088156 0)
(-0.00545331 -0.000867024 0)
(-0.00508036 -0.000850561 0)
(-0.00471479 -0.000832167 0)
(-0.0043574 -0.000811844 0)
(-0.004009 -0.000789598 0)
(-0.0036704 -0.000765441 0)
(-0.00334239 -0.000739393 0)
(-0.00302575 -0.000711477 0)
(-0.00272124 -0.000681727 0)
(-0.00242961 -0.000650185 0)
(-0.00215158 -0.000616903 0)
(-0.00188785 -0.000581945 0)
(-0.00163907 -0.00054539 0)
(-0.00140587 -0.000507331 0)
(-0.0011888 -0.000467881 0)
(-0.000988398 -0.000427176 0)
(-0.00080509 -0.000385378 0)
(-0.000639247 -0.000342683 0)
(-0.00049114 -0.000299325 0)
(-0.000360931 -0.000255587 0)
(-0.00024865 -0.00021181 0)
(-0.000154177 -0.00016841 0)
(-7.72095e-05 -0.00012589 0)
(-1.72357e-05 -8.48651e-05 0)
(2.65048e-05 -4.60865e-05 0)
(5.50598e-05 -1.0473e-05 0)
(6.981e-05 2.08547e-05 0)
(7.25204e-05 4.65384e-05 0)
(6.53928e-05 6.4953e-05 0)
(5.10766e-05 7.41958e-05 0)
(3.27108e-05 7.21222e-05 0)
(1.46723e-05 5.64474e-05 0)
(3.20131e-06 2.48666e-05 0)
(2.77077e-06 -3.20778e-05 0)
(1.18478e-05 -6.90034e-05 0)
(2.45114e-05 -8.35499e-05 0)
(3.46063e-05 -7.96519e-05 0)
(3.76867e-05 -6.06512e-05 0)
(3.05065e-05 -2.95063e-05 0)
(1.03605e-05 1.12184e-05 0)
(-2.49811e-05 5.93448e-05 0)
(-7.72949e-05 0.000113048 0)
(-0.000147958 0.00017081 0)
(-0.000238 0.000231376 0)
(-0.000348144 0.000293712 0)
(-0.00047885 0.000356967 0)
(-0.000630349 0.000420442 0)
(-0.000802676 0.000483559 0)
(-0.000995699 0.000545847 0)
(-0.00120915 0.000606913 0)
(-0.00144262 0.000666439 0)
(-0.00169563 0.00072416 0)
(-0.00196758 0.000779861 0)
(-0.00225783 0.000833365 0)
(-0.00256566 0.00088453 0)
(-0.0028903 0.000933241 0)
(-0.00323094 0.000979406 0)
(-0.00358675 0.00102295 0)
(-0.00395686 0.00106383 0)
(-0.00434038 0.001102 0)
(-0.0047364 0.00113743 0)
(-0.00514401 0.00117011 0)
(-0.00556228 0.00120002 0)
(-0.00599027 0.00122718 0)
(-0.00642707 0.00125159 0)
(-0.00687173 0.00127326 0)
(-0.00732333 0.00129222 0)
(-0.00778094 0.00130849 0)
(-0.00824364 0.0013221 0)
(-0.00871054 0.00133308 0)
(-0.00918072 0.00134147 0)
(-0.00965331 0.0013473 0)
(-0.0101274 0.00135062 0)
(-0.0106022 0.00135147 0)
(-0.0110768 0.00134989 0)
(-0.0115503 0.00134594 0)
(-0.0120221 0.00133965 0)
(-0.0124912 0.00133109 0)
(-0.0129568 0.0013203 0)
(-0.0134183 0.00130733 0)
(-0.0138748 0.00129223 0)
(-0.0143256 0.00127507 0)
(-0.0147701 0.00125588 0)
(-0.0152074 0.00123474 0)
(-0.015637 0.00121169 0)
(-0.0160581 0.00118679 0)
(-0.0164702 0.0011601 0)
(-0.0168726 0.00113168 0)
(-0.0172647 0.00110157 0)
(-0.0176459 0.00106984 0)
(-0.0180158 0.00103656 0)
(-0.0183736 0.00100176 0)
(-0.018719 0.000965527 0)
(-0.0190514 0.000927906 0)
(-0.0193703 0.000888959 0)
(-0.0196753 0.000848747 0)
(-0.019966 0.00080733 0)
(-0.0202419 0.000764769 0)
(-0.0205027 0.000721125 0)
(-0.0207479 0.00067646 0)
(-0.0209773 0.000630836 0)
(-0.0211905 0.000584315 0)
(-0.0213872 0.000536959 0)
(-0.0215671 0.000488834 0)
(-0.02173 0.000440001 0)
(-0.0218756 0.000390527 0)
(-0.0220037 0.000340474 0)
(-0.0221141 0.00028991 0)
(-0.0222067 0.000238899 0)
(-0.0222813 0.000187508 0)
(-0.0223378 0.000135804 0)
(-0.0223761 8.3854e-05 0)
(-0.0223961 3.17269e-05 0)
(-0.0223978 -2.0509e-05 0)
(-0.0223811 -7.27847e-05 0)
(-0.0223461 -0.00012503 0)
(-0.0222928 -0.000177175 0)
(-0.0222211 -0.000229149 0)
(-0.0221313 -0.000280881 0)
(-0.0220234 -0.000332297 0)
(-0.0218975 -0.000383328 0)
(-0.0217538 -0.000433898 0)
(-0.0215924 -0.000483936 0)
(-0.0214136 -0.000533367 0)
(-0.0212176 -0.000582118 0)
(-0.0210046 -0.000630114 0)
(-0.0207749 -0.000677281 0)
(-0.0205289 -0.000723545 0)
(-0.0202668 -0.00076883 0)
(-0.019989 -0.000813062 0)
(-0.019696 -0.000856165 0)
(-0.019388 -0.000898066 0)
(-0.0190656 -0.000938688 0)
(-0.0187291 -0.000977959 0)
(-0.0183792 -0.0010158 0)
(-0.0180163 -0.00105215 0)
(-0.017641 -0.00108692 0)
(-0.0172537 -0.00112005 0)
(-0.0168552 -0.00115146 0)
(-0.0164459 -0.00118108 0)
(-0.0160267 -0.00120884 0)
(-0.015598 -0.00123468 0)
(-0.0151607 -0.00125852 0)
(-0.0147153 -0.0012803 0)
(-0.0142627 -0.00129996 0)
(-0.0138036 -0.00131743 0)
(-0.0133387 -0.00133265 0)
(-0.0128689 -0.00134556 0)
(-0.0123949 -0.0013561 0)
(-0.0119177 -0.00136423 0)
(-0.011438 -0.00136988 0)
(-0.0109567 -0.001373 0)
(-0.0104747 -0.00137356 0)
(-0.0099929 -0.00137151 0)
(-0.00951219 -0.0013668 0)
(-0.00903351 -0.0013594 0)
(-0.00855777 -0.00134928 0)
(-0.00808592 -0.00133641 0)
(-0.00761892 -0.00132076 0)
(-0.00715771 -0.00130232 0)
(-0.00670325 -0.00128107 0)
(-0.00625649 -0.001257 0)
(-0.00581841 -0.00123012 0)
(-0.00538995 -0.00120042 0)
(-0.00497206 -0.00116792 0)
(-0.00456568 -0.00113264 0)
(-0.00417174 -0.00109462 0)
(-0.00379114 -0.00105389 0)
(-0.00342478 -0.0010105 0)
(-0.00307353 -0.000964523 0)
(-0.00273822 -0.000916043 0)
(-0.00241965 -0.000865157 0)
(-0.00211858 -0.000811986 0)
(-0.0018357 -0.000756672 0)
(-0.00157168 -0.000699389 0)
(-0.00132708 -0.000640341 0)
(-0.00110241 -0.000579771 0)
(-0.000898057 -0.00051797 0)
(-0.000714329 -0.000455282 0)
(-0.000551385 -0.000392121 0)
(-0.000409244 -0.000328981 0)
(-0.000287752 -0.000266452 0)
(-0.000186556 -0.000205247 0)
(-0.000105074 -0.000146219 0)
(-4.2463e-05 -9.03971e-05 0)
(2.42321e-06 -3.90187e-05 0)
(3.10702e-05 6.43283e-06 0)
(4.53518e-05 4.41889e-05 0)
(4.75784e-05 7.21602e-05 0)
(4.05134e-05 8.79131e-05 0)
(2.74305e-05 8.86763e-05 0)
(1.28121e-05 7.13676e-05 0)
(2.89728e-06 3.24311e-05 0)
(2.22616e-06 -3.78004e-05 0)
(8.61937e-06 -7.88889e-05 0)
(1.57087e-05 -9.19487e-05 0)
(1.77698e-05 -8.20539e-05 0)
(1.04839e-05 -5.33518e-05 0)
(-9.40995e-06 -9.44857e-06 0)
(-4.46348e-05 4.65406e-05 0)
(-9.74416e-05 0.000111961 0)
(-0.00016964 0.000184567 0)
(-0.000262649 0.000262466 0)
(-0.000377536 0.000344075 0)
(-0.000515065 0.00042807 0)
(-0.000675724 0.000513347 0)
(-0.000859766 0.000598988 0)
(-0.00106723 0.000684227 0)
(-0.00129799 0.000768429 0)
(-0.00155175 0.000851065 0)
(-0.00182808 0.000931695 0)
(-0.00212644 0.00100995 0)
(-0.00244621 0.00108554 0)
(-0.00278665 0.00115821 0)
(-0.00314697 0.00122776 0)
(-0.00352633 0.00129402 0)
(-0.00392383 0.00135686 0)
(-0.00433853 0.00141618 0)
(-0.00476945 0.00147189 0)
(-0.00521559 0.00152393 0)
(-0.00567594 0.00157227 0)
(-0.00614946 0.00161686 0)
(-0.0066351 0.00165771 0)
(-0.0071318 0.0016948 0)
(-0.00763851 0.00172814 0)
(-0.00815417 0.00175774 0)
(-0.00867771 0.00178364 0)
(-0.00920809 0.00180586 0)
(-0.00974426 0.00182444 0)
(-0.0102852 0.00183942 0)
(-0.0108298 0.00185085 0)
(-0.0113771 0.00185877 0)
(-0.0119262 0.00186325 0)
(-0.0124759 0.00186433 0)
(-0.0130254 0.00186209 0)
(-0.0135736 0.00185657 0)
(-0.0141197 0.00184785 0)
(-0.0146627 0.001836 0)
(-0.0152016 0.00182108 0)
(-0.0157357 0.00180316 0)
(-0.0162641 0.00178232 0)
(-0.0167858 0.00175862 0)
(-0.0173002 0.00173215 0)
(-0.0178063 0.00170297 0)
(-0.0183034 0.00167117 0)
(-0.0187907 0.00163681 0)
(-0.0192675 0.00159999 0)
(-0.0197332 0.00156077 0)
(-0.0201869 0.00151924 0)
(-0.020628 0.00147547 0)
(-0.0210558 0.00142954 0)
(-0.0214699 0.00138155 0)
(-0.0218694 0.00133155 0)
(-0.022254 0.00127965 0)
(-0.022623 0.00122592 0)
(-0.0229758 0.00117044 0)
(-0.0233121 0.00111331 0)
(-0.0236313 0.00105459 0)
(-0.0239329 0.000994377 0)
(-0.0242166 0.000932757 0)
(-0.0244819 0.000869814 0)
(-0.0247285 0.000805634 0)
(-0.0249559 0.000740305 0)
(-0.025164 0.000673913 0)
(-0.0253523 0.000606547 0)
(-0.0255206 0.000538296 0)
(-0.0256687 0.00046925 0)
(-0.0257964 0.000399499 0)
(-0.0259034 0.000329133 0)
(-0.0259895 0.000258245 0)
(-0.0260548 0.000186928 0)
(-0.0260989 0.000115274 0)
(-0.0261219 4.33775e-05 0)
(-0.0261237 -2.86666e-05 0)
(-0.0261043 -0.000100763 0)
(-0.0260637 -0.000172814 0)
(-0.0260018 -0.000244725 0)
(-0.0259188 -0.000316396 0)
(-0.0258148 -0.00038773 0)
(-0.0256898 -0.000458626 0)
(-0.025544 -0.000528986 0)