/*--------------------------------*- C++ -*----------------------------------*\
  =========                 |
  \\      /  F ield         | OpenFOAM: The Open Source CFD Toolbox
   \\    /   O peration     | Website:  https://openfoam.org
    \\  /    A nd           | Version:  7
     \\/     M anipulation  |
\*---------------------------------------------------------------------------*/
FoamFile
{
    version     2.0;
    format      ascii;
    class       volScalarField;
    location    "0.1";
    object      p;
}
// * * * * * * * * * * * * * * * * * * * * * * * * * * * * * * * * * * * * * //

dimensions      [0 2 -2 0 0 0 0];

internalField   nonuniform List<scalar> 
6400
(
-9.00151e-08
1.2255e-05
-0.000487692
-0.00150514
-0.00292506
-0.00463896
-0.00654834
-0.00856533
-0.010614
-0.0126297
-0.0145582
-0.0163538
-0.0179786
-0.0194011
-0.0205958
-0.0215421
-0.0222239
-0.0226291
-0.0227493
-0.0225789
-0.0221155
-0.021359
-0.020312
-0.0189791
-0.0173667
-0.0154831
-0.0133379
-0.0109424
-0.00830884
-0.00545103
-0.00238373
0.000877087
0.00431458
0.007911
0.0116478
0.0155059
0.0194655
0.0235063
0.0276077
0.0317482
0.0359063
0.0400599
0.044187
0.0482655
0.0522735
0.0561893
0.0599913
0.0636582
0.0671694
0.0705046
0.0736445
0.0765706
0.0792657
0.0817138
0.0839006
0.0858131
0.0874403
0.0887729
0.089804
0.0905289
0.0909458
0.0910555
0.0908619
0.0903724
0.0895978
0.0885531
0.0872573
0.0857342
0.0840129
0.0821283
0.0801215
0.0780413
0.0759444
0.0738973
0.0719767
0.0702699
0.0688732
0.0678897
0.0674255
0.067462
-1.10812e-05
4.96745e-06
-0.000440391
-0.00130902
-0.00250315
-0.00394461
-0.00555849
-0.00727356
-0.00902572
-0.0107585
-0.0124228
-0.0139768
-0.0153846
-0.0166165
-0.0176474
-0.0184572
-0.0190297
-0.0193526
-0.0194168
-0.0192161
-0.0187474
-0.0180097
-0.0170046
-0.0157357
-0.0142083
-0.0124296
-0.0104082
-0.008154
-0.00567834
-0.0029938
-0.000113931
0.00294649
0.00617175
0.00954538
0.0130501
0.016668
0.0203807
0.0241692
0.028014
0.0318952
0.0357925
0.0396853
0.0435528
0.0473745
0.0511301
0.054799
0.0583613
0.0617972
0.0650876
0.0682136
0.0711574
0.0739021
0.0764319
0.0787322
0.08079
0.082594
0.0841342
0.0854026
0.0863933
0.087103
0.0875305
0.0876775
0.0875486
0.0871515
0.0864976
0.0856014
0.0844818
0.0831619
0.0816694
0.0800374
0.078304
0.0765139
0.074718
0.0729742
0.0713471
0.0699071
0.0687269
0.0678806
0.0674611
0.0674986
0.000490931
0.000457787
1.33263e-05
-0.000787972
-0.00186022
-0.003141
-0.0045697
-0.00608693
-0.00763793
-0.00917351
-0.0106499
-0.0120288
-0.0132774
-0.0143675
-0.0152755
-0.0159822
-0.0164716
-0.0167315
-0.0167527
-0.0165289
-0.0160564
-0.0153338
-0.0143621
-0.0131441
-0.0116844
-0.00998922
-0.00806643
-0.00592516
-0.00357572
-0.00102975
0.00170002
0.00459987
0.00765507
0.0108501
0.0141687
0.0175941
0.0211088
0.024695
0.0283344
0.032008
0.0356964
0.0393804
0.0430404
0.0466571
0.0502111
0.0536832
0.0570546
0.0603067
0.0634216
0.0663816
0.0691699
0.0717709
0.0741699
0.0763535
0.0783097
0.0800282
0.0814997
0.0827174
0.0836763
0.0843735
0.0848086
0.0849837
0.0849037
0.0845765
0.0840132
0.0832282
0.0822395
0.0810693
0.0797437
0.0782935
0.076754
0.0751656
0.0735737
0.0720288
0.0705861
0.0693043
0.0682421
0.0674595
0.0670409
0.0670373
0.00151529
0.00133717
0.000823893
1.94383e-05
-0.00101066
-0.0022139
-0.00353879
-0.00493513
-0.00635593
-0.0077583
-0.00910358
-0.0103574
-0.0114897
-0.0124746
-0.0132904
-0.0139188
-0.0143447
-0.0145564
-0.0145448
-0.0143037
-0.0138293
-0.0131199
-0.0121761
-0.0110003
-0.00959658
-0.00797061
-0.0061295
-0.00408172
-0.00183689
0.000594145
0.0031994
0.00596595
0.00887994
0.0119266
0.0150907
0.0183561
0.0217065
0.0251249
0.0285938
0.0320951
0.0356105
0.0391217
0.04261
0.0460571
0.0494447
0.0527544
0.0559685
0.0590695
0.0620402
0.0648639
0.0675248
0.0700082
0.0723003
0.0743886
0.0762619
0.0779105
0.0793261
0.0805023
0.0814345
0.0821207
0.0825606
0.0827565
0.0827133
0.0824389
0.0819439
0.081242
0.0803505
0.0792901
0.0780852
0.0767641
0.0753592
0.0739065
0.0724466
0.0710235
0.0696848
0.0684803
0.0674602
0.0666757
0.0661942
0.0660586
0.00295163
0.00254944
0.00190963
0.00105252
1.46319e-05
-0.00115992
-0.00242781
-0.00374704
-0.00507782
-0.00638318
-0.00762938
-0.00878606
-0.00982636
-0.0107268
-0.0114674
-0.0120314
-0.012405
-0.0125768
-0.0125385
-0.0122839
-0.0118093
-0.011113
-0.0101953
-0.00905836
-0.00770577
-0.00614278
-0.00437599
-0.00241321
-0.000263488
0.00206301
0.00455504
0.00720039
0.00998593
0.0128977
0.0159212
0.0190413
0.0222423
0.0255082
0.0288222
0.0321672
0.0355256
0.0388801
0.042213
0.0455066
0.0487437
0.0519068
0.054979
0.0579437
0.0607844
0.0634855
0.0660319
0.0684097
0.0706059
0.0726088
0.0744078
0.0759937
0.0773588
0.0784973
0.0794051
0.0800802
0.0805227
0.0807349
0.0807215
0.08049
0.0800508
0.0794165
0.0786032
0.0776301
0.0765199
0.0752983
0.0739943
0.0726402
0.0712712
0.0699258
0.0686445
0.0674694
0.0664433
0.0656098
0.0650094
0.0646638
0.00469794
0.00402172
0.00321268
0.00226289
0.00117618
-1.09777e-05
-0.00126174
-0.00254189
-0.00381812
-0.00505891
-0.00623526
-0.00732073
-0.00829164
-0.00912711
-0.00980914
-0.0103225
-0.0106544
-0.0107948
-0.0107358
-0.0104716
-0.00999874
-0.00931562
-0.00842242
-0.00732103
-0.00601488
-0.00450881
-0.00280901
-0.000922797
0.00114134
0.00337379
0.00576396
0.00830027
0.0109703
0.0137608
0.0166579
0.0196474
0.0227142
0.0258432
0.0290181
0.0322228
0.0354406
0.0386547
0.0418485
0.045005
0.0481077
0.05114
0.0540857
0.056929
0.0596543
0.0622464
0.0646912
0.0669754
0.0690867
0.0710139
0.0727469
0.0742771
0.0755973
0.0767019
0.0775872
0.0782513
0.0786942
0.0789181
0.0789276
0.0787298
0.0783341
0.0777523
0.0769992
0.0760925
0.0750529
0.0739033
0.0726697
0.0713804
0.0700661
0.0687599
0.0674961
0.0663098
0.0652375
0.0643159
0.0635542
0.0629482
0.0066641
0.00568589
0.00467805
0.00360447
0.00243539
0.00120103
-6.72037e-05
-0.00134166
-0.00259503
-0.00380082
-0.0049343
-0.00597272
-0.00689556
-0.0076846
-0.00832386
-0.00879973
-0.00910088
-0.00921815
-0.00914443
-0.0088746
-0.00840541
-0.00773549
-0.00686512
-0.00579605
-0.00453156
-0.00307626
-0.00143598
0.000382336
0.00237065
0.00451985
0.00681987
0.00925973
0.0118276
0.0145107
0.0172962
0.0201703
0.0231187
0.0261267
0.029179
0.0322601
0.035354
0.0384448
0.0415163
0.0445524
0.0475373
0.0504552
0.0532904
0.0560277
0.0586522
0.0611494
0.0635058
0.0657087
0.0677464
0.0696078
0.0712835
0.0727652
0.074046
0.0751207
0.0759855
0.0766385
0.0770797
0.0773112
0.077337
0.0771637
0.0767998
0.0762561
0.0755461
0.0746859
0.073694
0.072591
0.0713996
0.0701444
0.0688523
0.0675513
0.0662703
0.0650381
0.0638863
0.0628453
0.0618926
0.0609974
0.00877183
0.00747828
0.00625263
0.00503235
0.00375518
0.00244619
0.00113254
-0.000163811
-0.00142093
-0.00261692
-0.00373084
-0.00474338
-0.00563708
-0.0063962
-0.00700688
-0.00745719
-0.00773726
-0.00783906
-0.00775625
-0.00748436
-0.00702067
-0.00636405
-0.00551492
-0.0044751
-0.0032478
-0.00183743
-0.000249606
0.00150898
0.00343071
0.00550692
0.00772793
0.0100832
0.0125615
0.0151508
0.0178387
0.0206118
0.0234567
0.0263591
0.0293044
0.0322777
0.0352639
0.0382474
0.0412127
0.0441445
0.0470275
0.0498464
0.0525862
0.0552321
0.0577699
0.0601856
0.0624663
0.0645996
0.066574
0.0683791
0.0700057
0.0714459
0.0726929
0.0737415
0.0745878
0.0752299
0.0756677
0.0759028
0.0759391
0.0757821
0.0754395
0.074921
0.0742388
0.0734074
0.0724433
0.0713645
0.0701908
0.0689436
0.0676461
0.0663221
0.0649955
0.0636895
0.062432
0.0612484
0.0600853
0.0588866
0.010955
0.00934201
0.0078876
0.00650452
0.00510008
0.00369524
0.00231389
0.00097309
-0.000309836
-0.00151703
-0.00263118
-0.00363614
-0.00451716
-0.00526089
-0.00585555
-0.00629097
-0.00655864
-0.00665173
-0.00656482
-0.00629413
-0.00583746
-0.00519413
-0.00436473
-0.00335116
-0.00215669
-0.000785739
0.000756297
0.00246302
0.00432703
0.00633994
0.00849248
0.0107746
0.0131755
0.0156837
0.0182872
0.0209732
0.0237287
0.0265401
0.0293934
0.0322742
0.0351678
0.0380595
0.040934
0.0437768
0.0465729
0.0493076
0.0519664
0.0545349
0.0569994
0.0593465
0.0615634
0.0636382
0.0655596
0.0673176
0.0689031
0.0703085
0.071527
0.0725531
0.073383
0.0740147
0.0744479
0.0746837
0.0747252
0.0745773
0.0742467
0.0737422
0.0730745
0.0722566
0.0713027
0.0702287
0.0690518
0.0677906
0.0664647
0.0650944
0.0636991
0.0622975
0.0609144
0.0595715
0.0581863
0.0566791
0.013158
0.0112277
0.00953902
0.00798239
0.00643666
0.00491981
0.00345316
0.00204966
0.00072277
-0.000513243
-0.00164435
-0.00265728
-0.00353979
-0.00428079
-0.00487044
-0.00530031
-0.00556332
-0.00565363
-0.00556688
-0.00530017
-0.00485183
-0.00422146
-0.00341006
-0.00241982
-0.00125404
8.29436e-05
0.00158577
0.00324815
0.00506289
0.00702187
0.00911617
0.0113361
0.0136713
0.0161107
0.0186426
0.0212548
0.0239347
0.0266692
0.0294449
0.0322477
0.0350636
0.0378781
0.0406767
0.0434451
0.0461689
0.0488337
0.0514253
0.05393
0.0563343
0.0586251
0.0607899
0.0628169
0.0646952
0.066415
0.0679674
0.0693446
0.0705397
0.0715472
0.0723633
0.0729856
0.0734133
0.0736473
0.0736897
0.0735448
0.0732183
0.072718
0.0720532
0.0712353
0.0702765
0.0691908
0.0679931
0.0666992
0.0653259
0.0638902
0.0624076
0.0608933
0.0593696
0.057856
0.0562425
0.0544277
0.0153346
0.0130923
0.0111678
0.00943091
0.00773395
0.00609287
0.00452721
0.00304647
0.0016608
0.000381368
-0.00078072
-0.00181474
-0.00271072
-0.00345983
-0.00405404
-0.00448641
-0.00475119
-0.00484388
-0.00476105
-0.00450048
-0.00406115
-0.00344324
-0.00264809
-0.0016781
-0.000536731
0.00077161
0.00224158
0.00386696
0.00564068
0.00755484
0.00960079
0.0117692
0.01405
0.0164324
0.0189052
0.0214564
0.024074
0.0267453
0.0294572
0.0321962
0.0349486
0.0377003
0.0404373
0.0431456
0.045811
0.0484196
0.0509577
0.0534117
0.0557684
0.0580149
0.0601388
0.0621287
0.0639737
0.0656642
0.0671912
0.0685468
0.069724
0.0707171
0.0715221
0.0721364
0.0725585
0.0727888
0.0728288
0.0726818
0.0723528
0.0718484
0.0711766
0.0703471
0.0693707
0.0682593
0.0670258
0.0656838
0.0642473
0.0627304
0.0611459
0.0595055
0.0578305
0.0561386
0.0542942
0.052176
0.0174462
0.0148986
0.0127393
0.0108183
0.00896327
0.00718897
0.00551385
0.00394445
0.00248801
0.00115317
-5.13813e-05
-0.00111742
-0.00203714
-0.00280345
-0.00341013
-0.00385178
-0.00412393
-0.00422317
-0.00414712
-0.00389432
-0.00346438
-0.00285804
-0.00207705
-0.00112413
-2.90203e-06
0.00128214
0.00272556
0.00432113
0.00606188
0.00794013
0.00994744
0.0120747
0.014312
0.016649
0.0190746
0.0215775
0.0241457
0.026767
0.0294287
0.0321175
0.0348202
0.0375231
0.0402124
0.0428742
0.045495
0.0480609
0.0505586
0.0529747
0.0552962
0.0575101
0.0596043
0.0615675
0.063389
0.0650589
0.0665683
0.067909
0.0690739
0.0700572
0.0708543
0.0714623
0.0718793
0.0721048
0.0721399
0.0719869
0.07165
0.0711346
0.0704475
0.0695969
0.0685921
0.0674434
0.0661617
0.0647586
0.0632458
0.0616352
0.059937
0.0581607
0.0563265
0.0544513
0.0523758
0.04996
0.01946
0.0166147
0.0142226
0.0121157
0.0100982
0.00818426
0.00639167
0.00472467
0.00318812
0.00178825
0.000531667
-0.000575356
-0.0015271
-0.00231826
-0.00294404
-0.00340045
-0.00368439
-0.00379357
-0.00372646
-0.00348238
-0.00306167
-0.00246567
-0.00169656
-0.000757291
0.000348245
0.00161534
0.00303844
0.00461133
0.00632712
0.00817824
0.0101564
0.0122526
0.0144572
0.01676
0.0191503
0.021617
0.0241484
0.0267326
0.0293572
0.0320092
0.0346758
0.0373433
0.0399983
0.0426272
0.0452166
0.0477531
0.0502233
0.0526141
0.0549123
0.0571052
0.0591808
0.0611278
0.0629353
0.0645935
0.0660932
0.067426
0.0685845
0.0695627
0.0703557
0.0709599
0.0713728
0.0715933
0.0716219
0.0714601
0.071111
0.070579
0.0698698
0.0689903
0.0679483
0.0667526
0.0654125
0.0639376
0.0623381
0.0606237
0.0588027
0.0568827
0.0548837
0.0528222
0.0505166
0.0478094
0.021348
0.0182121
0.0155903
0.0132969
0.0111142
0.00905602
0.00714017
0.00536873
0.0037446
0.00227221
0.000956105
-0.000199293
-0.00118988
-0.00201188
-0.00266202
-0.00313766
-0.00343691
-0.00355843
-0.0035016
-0.00326662
-0.00285457
-0.00226728
-0.00150733
-0.000578057
0.000516322
0.00177087
0.00317996
0.00473734
0.00643613
0.00826878
0.0102271
0.0123021
0.0144845
0.0167642
0.0191308
0.0215732
0.0240801
0.0266399
0.0292402
0.0318686
0.0345121
0.0371575
0.0397915
0.0424007
0.044972
0.047492
0.0499474
0.0523251
0.054612
0.0567955
0.0588636
0.0608046
0.0626079
0.0642633
0.0657613
0.0670934
0.0682519
0.0692303
0.0700232
0.0706265
0.0710371
0.0712533
0.0712748
0.0711023
0.070738
0.0701853
0.0694487
0.068534
0.0674477
0.0661972
0.0647902
0.063235
0.0615401
0.0597139
0.0577631
0.0556935
0.0535257
0.0512761
0.0487421
0.0457495
0.0230857
0.0196663
0.0168177
0.0143381
0.0119887
0.00978318
0.00773963
0.00585869
0.00414138
0.00259044
0.00120884
-6.20384e-07
-0.00103531
-0.00189293
-0.00257155
-0.0030698
-0.0033868
-0.00352222
-0.00347638
-0.00325032
-0.00284575
-0.00226504
-0.00151123
-0.000588073
0.000499873
0.00174747
0.00314897
0.00469804
0.00638774
0.00821051
0.0101582
0.0122219
0.0143925
0.01666
0.0190141
0.021444
0.0239386
0.0264863
0.0290751
0.0316926
0.034326
0.0369623
0.0395884
0.042191
0.0447571
0.0472733
0.0497265
0.0521034
0.054391
0.0565766
0.0586481
0.0605937
0.0624025
0.0640642
0.0655689
0.0669079
0.068073
0.0690572
0.0698547
0.0704607
0.0708716
0.071085
0.0710996
0.0709156
0.0705343
0.0699579
0.0691901
0.0682353
0.0670991
0.0657874
0.0643069
0.0626645
0.0608675
0.0589232
0.0568369
0.0546134
0.0522737
0.0498348
0.0470742
0.0438016
0.0246512
0.0209545
0.0178824
0.0152174
0.0127004
0.0103456
0.0081714
0.00617711
0.00436231
0.00272832
0.00127666
8.79949e-06
-0.00107403
-0.00197084
-0.00268098
-0.00320413
-0.00354043
-0.00369054
-0.00365571
-0.00343775
-0.00303896
-0.00246225
-0.0017112
-0.000790006
0.00029648
0.00154291
0.00294339
0.00449143
0.00617998
0.00800144
0.00994764
0.0120099
0.0141789
0.016445
0.0187978
0.0212268
0.023721
0.0262689
0.0288586
0.0314779
0.034114
0.0367542
0.0393853
0.0419942
0.0445679
0.0470931
0.0495565
0.0519449
0.0542452
0.0564444
0.0585304
0.0604912
0.0623156
0.0639929
0.065513
0.0668668
0.0680455
0.0690417
0.069849
0.0704621
0.0708766
0.0710893
0.0710984
0.0709031
0.0705039
0.0699021
0.0691004
0.0681021
0.0669116
0.065534
0.0639746
0.0622397
0.0603355
0.058268
0.0560418
0.0536608
0.051147
0.0485182
0.0455325
0.0419843
0.0260251
0.0220562
0.0187637
0.0159142
0.0132295
0.0107242
0.00841726
0.0063069
0.00439149
0.00267111
0.0011461
-0.000183336
-0.00131722
-0.00225578
-0.0029994
-0.00354879
-0.0039051
-0.00406998
-0.00404553
-0.00383419
-0.00343891
-0.00286321
-0.00211119
-0.00118748
-9.7185e-05
0.00115413
0.00256031
0.00411469
0.00581007
0.0076388
0.00959273
0.0116632
0.0138409
0.0161162
0.018479
0.0209186
0.0234242
0.0259844
0.0285874
0.0312209
0.0338726
0.0365294
0.0391784
0.0418065
0.0444006
0.0469474
0.0494336
0.0518457
0.0541706
0.0563952
0.0585069
0.0604936
0.0623439
0.0640465
0.0655911
0.0669679
0.0681677
0.0691827
0.0700058
0.0706309
0.071053
0.0712683
0.071274
0.0710686
0.0706518
0.070024
0.0691867
0.0681425
0.0668948
0.0654477
0.0638057
0.0619742
0.0599584
0.0577639
0.0553943
0.0528532
0.0501633
0.0473439
0.0441344
0.0403138
0.0271893
0.0229527
0.0194422
0.0164094
0.0135571
0.0109007
0.00845959
0.00623129
0.0042131
0.00240406
0.000803416
-0.000589784
-0.00177666
-0.00275846
-0.00353657
-0.00411269
-0.00448902
-0.00466806
-0.0046526
-0.00444578
-0.00405124
-0.00347314
-0.00271607
-0.00178497
-0.000685255
0.000577207
0.00199599
0.00356417
0.00527446
0.00711916
0.00909007
0.0111785
0.0133751
0.0156704
0.018054
0.0205157
0.0230445
0.025629
0.0282576
0.030918
0.0335977
0.0362839
0.0389637
0.0416238
0.0442511
0.0468323
0.0493538
0.051802
0.0541636
0.0564254
0.0585744
0.0605982
0.0624848
0.0642228
0.0658013
0.0672098
0.068439
0.0694801
0.0703255
0.0709683
0.0714029
0.0716246
0.0716299
0.0714167
0.0709835
0.0703299
0.0694567
0.0683654
0.0670586
0.0655396
0.0638123
0.061881
0.0597507
0.0574261
0.0549103
0.0522065
0.0493391
0.0463285
0.0428956
0.0388047
0.0281272
0.0236262
0.0198999
0.0166848
0.0136651
0.0108571
0.00828118
0.00593381
0.00381147
0.00191232
0.000234585
-0.00122367
-0.00246451
-0.00349013
-0.00430291
-0.00490558
-0.00530118
-0.00549297
-0.00548445
-0.00527952
-0.00488253
-0.00429818
-0.00353147
-0.0025877
-0.00147264
-0.000192546
0.00124587
0.00283551
0.00456897
0.00643845
0.00843567
0.0105518
0.0127776
0.0151034
0.0175191
0.0200142
0.0225779
0.0251988
0.0278652
0.0305649
0.0332854
0.0360138
0.0387371
0.0414422
0.0441156
0.0467439
0.0493134
0.0518103
0.054221
0.0565319
0.05873
0.0608022
0.0627362
0.06452
0.0661422
0.0675919
0.068859
0.0699342
0.0708091
0.0714761
0.0719288
0.0721617
0.0721707
0.0719526
0.0715053
0.0708273
0.0699187
0.0687801
0.0674134
0.0658212
0.0640067
0.0619736
0.0597263
0.057269
0.0546047
0.0517364
0.0486899
0.0454871
0.0418306
0.0374702
0.028823
0.0240599
0.0201192
0.0167227
0.013536
0.0105764
0.00786511
0.00539807
0.00317085
0.00118082
-0.000574659
-0.00209838
-0.00339332
-0.0044626
-0.00530958
-0.00593785
-0.0063512
-0.00655363
-0.00654944
-0.00634328
-0.00594013
-0.00534516
-0.00456375
-0.00360165
-0.00246507
-0.00116063
0.000304719
0.0019237
0.00368879
0.00559202
0.00762495
0.0097787
0.012044
0.014411
0.0168698
0.0194098
0.0220202
0.0246895
0.027406
0.0301574
0.0329314
0.0357148
0.0384946
0.0412575
0.04399
0.0466783
0.0493086
0.051867
0.0543394
0.056712
0.0589711
0.0611035
0.0630962
0.0649368
0.0666132
0.0681139
0.0694283
0.0705462
0.0714585
0.0721569
0.0726342
0.0728841
0.0729015
0.0726826
0.0722241
0.0715241
0.0705815
0.0693965
0.0679701
0.0663043
0.0644016
0.0622652
0.0598991
0.0573074
0.0544927
0.051458
0.0482308
0.0448344
0.0409535
0.0363228
0.0292614
0.0242375
0.0200834
0.0165059
0.0131525
0.0100414
0.00719468
0.00460775
0.00227543
0.000194384
-0.00163878
-0.00322768
-0.00457617
-0.0056883
-0.00656826
-0.00722042
-0.00764928
-0.00785967
-0.00785669
-0.00764566
-0.00723207
-0.00662154
-0.00581995
-0.00483355
-0.003669
-0.0023332
-0.000833325
0.000823165
0.00262852
0.00457456
0.00665272
0.00885401
0.0111691
0.0135883
0.0161013
0.0186977
0.0213664
0.0240961
0.026875
0.0296909
0.032531
0.0353824
0.0382317
0.0410656
0.0438702
0.0466316
0.0493359
0.0519687
0.0545157
0.0569626
0.0592953
0.0615001
0.0635633
0.065472
0.0672137
0.068776
0.0701476
0.0713176
0.072276
0.0730139
0.073523
0.0737964
0.073828
0.073613
0.0731476
0.0724288
0.0714549
0.0702252
0.0687401
0.067001
0.0650099
0.0627695
0.0602834
0.0575557
0.0545889
0.0513861
0.0479764
0.0443847
0.0402774
0.0353747
0.0294269
0.0241428
0.0197757
0.0160175
0.0124976
0.0092351
0.00625311
0.00354644
0.00110929
-0.00106234
-0.00297254
-0.00462576
-0.00602667
-0.00718014
-0.00809114
-0.00876476
-0.00920634
-0.0094215
-0.00941604
-0.00919585
-0.00876693
-0.00813545
-0.00730785
-0.00629088
-0.00509154
-0.003717
-0.00217467
-0.000472284
0.00138213
0.00338022
0.00551326
0.00777221
0.0101477
0.0126298
0.0152083
0.0178725
0.0206115
0.0234138
0.0262675
0.0291603
0.0320795
0.0350118
0.0379438
0.0408618
0.0437519
0.0465999
0.0493915
0.0521121
0.0547468
0.0572811
0.0597002
0.0619899
0.0641361
0.0661251
0.0679436
0.0695787
0.0710181
0.0722503
0.0732644
0.0740506
0.0745998
0.074904
0.0749565
0.0747514
0.074284
0.0735506
0.0725488
0.0712771
0.0697353
0.067924
0.0658448
0.0635002
0.0608935
0.0580287
0.0549083
0.0515355
0.0479411
0.0441519
0.0398157
0.0346378
0.0293045
0.0237599
0.0191795
0.0152407
0.0115544
0.00814059
0.00502357
0.00219762
-0.000343713
-0.00260503
-0.00459113
-0.00630726
-0.00775884
-0.0089515
-0.00989093
-0.010583
-0.011034
-0.0112501
-0.0112379
-0.0110036
-0.010554
-0.00989576
-0.00903596
-0.00798171
-0.00674032
-0.00531927
-0.00372629
-0.00196941
-5.69394e-05
0.00200262
0.00420043
0.00652735
0.00897382
0.0115299
0.0141851
0.0169288
0.01975
0.0226371
0.0255781
0.0285607
0.0315719
0.0345982
0.037626
0.0406416
0.0436307
0.0465789
0.0494715
0.0522934
0.0550295
0.0576646
0.0601835
0.0625713
0.0648134
0.0668954
0.068803
0.0705228
0.0720415
0.0733468
0.074427
0.0752712
0.0758695
0.0762129
0.0762938
0.0761054
0.0756421
0.0748994
0.073874
0.0725638
0.0709678
0.0690863
0.0669202
0.0644718
0.0617443
0.0587415
0.055466
0.0519213
0.0481399
0.0441502
0.0395817
0.0341242
0.0288785
0.0230725
0.0182783
0.0141584
0.0103056
0.00674071
0.0034891
0.000544541
-0.00210001
-0.00444976
-0.0065102
-0.00828729
-0.00978719
-0.0110163
-0.011981
-0.0126881
-0.0131445
-0.0133572
-0.0133331
-0.0130793
-0.0126032
-0.011912
-0.0110133
-0.00991461
-0.0086235
-0.00714785
-0.00549575
-0.00367555
-0.00169574
0.000434998
0.0027077
0.00511304
0.00764129
0.0102823
0.0130257
0.0158607
0.0187761
0.0217604
0.0248014
0.0278865
0.0310026
0.0341362
0.0372735
0.0404003
0.0435022
0.0465645
0.049572
0.0525092
0.0553606
0.0581104
0.060743
0.0632428
0.0655943
0.0677825
0.0697923
0.0716094
0.0732196
0.0746098
0.0757673
0.0766802
0.0773376
0.0777297
0.0778475
0.0776836
0.0772314
0.0764855
0.0754418
0.0740975
0.0724509
0.0705017
0.0682505
0.0656992
0.062851
0.0597095
0.0562776
0.0525589
0.0485878
0.0443944
0.0395892
0.0338465
0.0281334
0.0220641
0.0170549
0.0127535
0.00873389
0.00501807
0.00163235
-0.00142994
-0.00417646
-0.00661304
-0.00874581
-0.0105814
-0.0121267
-0.013389
-0.0143753
-0.0150934
-0.0155507
-0.0157547
-0.0157132
-0.0154341
-0.0149252
-0.0141944
-0.0132496
-0.0120987
-0.0107498
-0.00921111
-0.00749113
-0.00559844
-0.0035417
-0.00132979
0.00102813
0.0035225
0.00614344
0.00888072
0.0117238
0.0146619
0.0176838
0.0207777
0.0239314
0.027132
0.0303664
0.0336207
0.0368811
0.040133
0.0433618
0.0465523
0.0496889
0.0527558
0.0557369
0.0586159
0.0613766
0.0640027
0.0664779
0.0687863
0.070912
0.0728398
0.0745547
0.0760425
0.0772895
0.0782828
0.0790104
0.0794613
0.0796258
0.0794952
0.0790621
0.0783201
0.0772643
0.0758911
0.0741982
0.0721846
0.0698508
0.0671981
0.0642296
0.0609492
0.0573595
0.0534645
0.0493006
0.0448996
0.0398526
0.033818
0.027053
0.0207179
0.0154923
0.0110084
0.00682159
0.00295488
-0.000564399
-0.00374341
-0.00659043
-0.00911189
-0.0113145
-0.0132058
-0.0147932
-0.0160848
-0.0170886
-0.0178129
-0.0182657
-0.0184555
-0.0183907
-0.0180797
-0.0175312
-0.0167534
-0.0157547
-0.0145436
-0.0131284
-0.011518
-0.00972098
-0.00774622
-0.00560262
-0.00329929
-0.000845652
0.00174854
0.00447326
0.00731823
0.0102729
0.0133262
0.0164669
0.019683
0.0229622
0.0262914
0.0296574
0.0330462
0.0364435
0.0398347
0.0432047
0.0465379
0.0498183
0.0530296
0.0561553
0.0591786
0.0620823
0.0648496
0.0674633
0.0699067
0.0721629
0.0742158
0.0760494
0.0776484
0.0789981
0.0800844
0.0808942
0.0814155
0.0816372
0.0815499
0.0811448
0.0804148
0.0793541
0.0779582
0.0762242
0.0741504
0.0717369
0.0689847
0.0658969
0.0624772
0.0587285
0.0546549
0.0502947
0.0456819
0.0403872
0.0340528
0.0256205
0.0190167
0.0135725
0.00890498
0.00455042
0.000532834
-0.00311943
-0.006414
-0.0093598
-0.0119639
-0.0142336
-0.0161771
-0.0178028
-0.0191195
-0.020136
-0.0208611
-0.0213037
-0.021473
-0.0213782
-0.0210285
-0.0204329
-0.0196002
-0.0185394
-0.0172594
-0.0157692
-0.0140778
-0.0121942
-0.0101274
-0.0078867
-0.00548147
-0.00292139
-0.000216351
0.00262353
0.00558789
0.00866601
0.0118468
0.0151188
0.0184699
0.0218875
0.0253587
0.0288699
0.0324071
0.0359555
0.0395004
0.0430261
0.0465167
0.049956
0.053327
0.0566128
0.0597957
0.0628581
0.0657822
0.06855
0.0711438
0.0735459
0.0757391
0.0777064
0.0794313
0.080898
0.0820911
0.0829963
0.0836004
0.0838912
0.083858
0.0834912
0.0827824
0.0817249
0.0803134
0.0785442
0.0764151
0.0739255
0.0710763
0.0678704
0.0643115
0.0604025
0.0561478
0.0515877
0.0467582
0.0412092
0.034566
0.0238187
0.0169425
0.0112773
0.00642457
0.00190152
-0.00226701
-0.00605161
-0.00946046
-0.0125031
-0.0151871
-0.0175208
-0.0195129
-0.0211726
-0.0225095
-0.0235331
-0.0242531
-0.0246791
-0.0248212
-0.0246893
-0.0242931
-0.0236423
-0.0227463
-0.0216147
-0.0202569
-0.0186823
-0.0169002
-0.0149198
-0.0127508
-0.0104025
-0.00788464
-0.0052071
-0.00237988
0.000586812
0.00368246
0.00689623
0.0102169
0.0136327
0.0171317
0.0207011
0.0243278
0.0279981
0.0316977
0.0354116
0.0391246
0.042821
0.0464843
0.0500978
0.0536443
0.057106
0.0604647
0.0637019
0.066799
0.0697373
0.0724978
0.0750622
0.0774119
0.0795288
0.0813954
0.0829943
0.084309
0.085324
0.0860246
0.0863976
0.0864307
0.0861134
0.0854361
0.0843911
0.0829721
0.0811745
0.0789957
0.0764344
0.0734913
0.0701689
0.0664711
0.0624006
0.0579622
0.0531982
0.0481468
0.0423363
0.0353743
0.0216294
0.0144764
0.00858727
0.00354775
-0.00114474
-0.00546434
-0.0093806
-0.0129023
-0.0160395
-0.0188007
-0.0211947
-0.0232312
-0.0249201
-0.0262717
-0.0272964
-0.0280046
-0.0284072
-0.0285147
-0.0283377
-0.0278867
-0.027172
-0.0262038
-0.0249921
-0.0235469
-0.021878
-0.0199949
-0.0179075
-0.0156255
-0.0131588
-0.0105173
-0.00771095
-0.0047499
-0.00164452
0.00159453
0.00495624
0.00842927
0.0120019
0.0156618
0.0193964
0.0231924
0.0270358
0.0309121
0.0348061
0.0387022
0.0425844
0.0464359
0.0502396
0.0539777
0.0576316
0.0611827
0.0646116
0.0678987
0.0710245
0.0739691
0.0767129
0.0792363
0.0815199
0.0835448
0.0852925
0.086745
0.0878853
0.0886974
0.0891668
0.0892798
0.0890245
0.0883902
0.087368
0.0859506
0.0841326
0.0819105
0.0792826
0.0762492
0.0728124
0.0689761
0.0647432
0.0601184
0.0551465
0.0498674
0.0437872
0.0364954
0.0190336
0.0115988
0.0054825
0.000254169
-0.00460885
-0.00907971
-0.0131269
-0.0167598
-0.0199892
-0.0228243
-0.0252747
-0.0273508
-0.0290633
-0.0304235
-0.0314426
-0.0321321
-0.0325035
-0.0325682
-0.0323375
-0.0318227
-0.0310349
-0.0299849
-0.0286833
-0.0271406
-0.0253668
-0.0233722
-0.0211669
-0.018761
-0.0161647
-0.013388
-0.0104412
-0.00733436
-0.00407819
-0.000683461
0.0028387
0.00647687
0.0102193
0.0140536
0.0179671
0.0219462
0.0259769
0.0300443
0.0341331
0.0382276
0.0423112
0.0463669
0.050377
0.0543232
0.0581864
0.061947
0.0655849
0.0690799
0.0724111
0.0755579
0.0784993
0.0812145
0.083683
0.0858842
0.0877983
0.0894059
0.0906885
0.0916285
0.0922099
0.0924176
0.0922382
0.0916598
0.0906719
0.0892664
0.0874369
0.085179
0.0824905
0.079371
0.0758224
0.0718485
0.0674521
0.0626383
0.057454
0.0519412
0.0455827
0.0379489
0.0160113
0.00828913
0.00194186
-0.00347755
-0.00851232
-0.0131347
-0.017312
-0.0210542
-0.0243732
-0.0272786
-0.0297808
-0.0318911
-0.0336213
-0.0349833
-0.0359896
-0.0366524
-0.0369841
-0.036997
-0.0367034
-0.0361152
-0.0352443
-0.0341022
-0.0327002
-0.031049
-0.0291595
-0.0270422
-0.0247077
-0.0221665
-0.0194289
-0.0165053
-0.0134058
-0.0101411
-0.00672188
-0.00315899
0.000536333
0.00435265
0.0082781
0.0123003
0.0164064
0.0205827
0.024815
0.0290883
0.0333871
0.0376953
0.0419963
0.0462724
0.0505056
0.0546769
0.0587666
0.0627546
0.0666198
0.070341
0.0738966
0.0772645
0.0804227
0.0833491
0.0860216
0.0884183
0.0905179
0.0922993
0.0937424
0.0948282
0.0955387
0.0958573
0.0957691
0.0952606
0.0943201
0.0929381
0.0911072
0.0888221
0.0860797
0.082879
0.0792218
0.0751116
0.0705511
0.0655456
0.0601443
0.0543912
0.0477449
0.0397561
0.0125412
0.00452552
-0.00205689
-0.00766989
-0.0128778
-0.0176518
-0.0219584
-0.025808
-0.0292134
-0.0321849
-0.0347339
-0.0368725
-0.0386135
-0.03997
-0.0409553
-0.0415827
-0.0418655
-0.041817
-0.0414502
-0.0407782
-0.0398136
-0.0385684
-0.0370545
-0.0352835
-0.0332666
-0.031015
-0.0285396
-0.0258511
-0.0229602
-0.0198773
-0.016613
-0.013178
-0.00958311
-0.00583935
-0.0019579
0.00204975
0.00617167
0.0103954
0.014708
0.0190956
0.023544
0.028038
0.0325621
0.0370999
0.0416343
0.0461475
0.0506207
0.0550346
0.0593689
0.0636025
0.0677139
0.0716807
0.0754803
0.0790893
0.0824845
0.0856424
0.0885394
0.0911521
0.0934575
0.0954329
0.0970564
0.0983072
0.0991654
0.0996129
0.0996327
0.0992098
0.0983311
0.0969856
0.0951647
0.0928619
0.0900734
0.0867975
0.0830354
0.0787906
0.0740656
0.0688657
0.0632426
0.0572424
0.0502982
0.0419403
0.00860099
0.000284995
-0.0065372
-0.0123466
-0.0177291
-0.0226551
-0.0270898
-0.0310446
-0.0345329
-0.0375659
-0.040156
-0.0423163
-0.0440607
-0.0454034
-0.0463587
-0.0469411
-0.0471649
-0.0470443
-0.0465935
-0.0458263
-0.0447562
-0.043396
-0.0417584
-0.0398554
-0.037699
-0.0353008
-0.032672
-0.0298238
-0.0267669
-0.0235122
-0.0200704
-0.0164524
-0.0126691
-0.00873146
-0.00465072
-0.000438407
0.00389348
0.00833244
0.0128654
0.0174787
0.0221578
0.0268878
0.0316527
0.0364359
0.0412202
0.0459872
0.0507179
0.0553923
0.0599896
0.064488
0.0688651
0.0730976
0.0771616
0.0810327
0.0846862
0.0880971
0.0912404
0.094091
0.096624
0.0988151
0.10064
0.102077
0.103103
0.103699
0.103845
0.103525
0.102724
0.10143
0.0996319
0.0973224
0.0944967
0.0911524
0.0872901
0.0829128
0.0780231
0.0726264
0.0667765
0.0605219
0.0532691
0.044527
0.00416706
-0.00445677
-0.0115238
-0.0175327
-0.0230915
-0.0281697
-0.0327313
-0.0367886
-0.0403557
-0.0434451
-0.0460699
-0.0482446
-0.0499841
-0.0513039
-0.0522193
-0.0527461
-0.0528996
-0.0526954
-0.0521486
-0.051274
-0.0500859
-0.048598
-0.0468237
-0.0447759
-0.0424671
-0.0399092
-0.037114
-0.0340929
-0.0308572
-0.0274177
-0.0237855
-0.0199715
-0.0159866
-0.0118418
-0.00754846
-0.00311807
0.00143735
0.00610529
0.0108727
0.015726
0.0206508
0.0256318
0.0306531
0.035698
0.0407487
0.0457868
0.0507927
0.055746
0.0606253
0.0654081
0.0700712
0.0745902
0.07894
0.0830951
0.0870293
0.090716
0.0941286
0.0972404
0.100024
0.102454
0.104504
0.10615
0.107366
0.108131
0.108424
0.108226
0.107521
0.106294
0.104533
0.102229
0.0993764
0.0959715
0.0920144
0.0875077
0.0824536
0.0768576
0.0707759
0.0642594
0.0566865
0.047544
-0.000785616
-0.00972552
-0.017043
-0.0232547
-0.0289916
-0.0342221
-0.0389092
-0.0430659
-0.0467075
-0.0498474
-0.0524999
-0.0546808
-0.0564062
-0.0576928
-0.0585573
-0.0590168
-0.059088
-0.0587875
-0.0581316
-0.0571361
-0.0558163
-0.0541871
-0.0522624
-0.050056
-0.0475809
-0.0448496
-0.0418743
-0.0386668
-0.0352386
-0.031601
-0.027765
-0.0237416
-0.0195417
-0.0151764
-0.010657
-0.00599499
-0.00120241
0.00370837
0.00872444
0.0138322
0.0190174
0.0242648
0.0295583
0.034881
0.040215
0.0455415
0.0508406
0.0560916
0.0612725
0.06636
0.0713299
0.0761569
0.0808149
0.0852769
0.0895152
0.0935018
0.0972083
0.100606
0.103666
0.10636
0.10866
0.110538
0.111968
0.112926
0.113388
0.113334
0.112744
0.111601
0.109894
0.107609
0.104741
0.101285
0.0972394
0.092607
0.0873893
0.0815918
0.0752734
0.068487
0.0605819
0.0510219
-0.00628353
-0.0155486
-0.0231226
-0.0295408
-0.0354577
-0.0408405
-0.0456514
-0.0499042
-0.0536153