/*--------------------------------*- C++ -*----------------------------------*\
  =========                 |
  \\      /  F ield         | OpenFOAM: The Open Source CFD Toolbox
   \\    /   O peration     | Website:  https://openfoam.org
    \\  /    A nd           | Version:  7
     \\/     M anipulation  |
\*---------------------------------------------------------------------------*/
FoamFile
{
    version     2.0;
    format      ascii;
    class       surfaceScalarField;
    location    "0.1";
    object      phi;
}
// * * * * * * * * * * * * * * * * * * * * * * * * * * * * * * * * * * * * * //

dimensions      [0 3 -1 0 0 0 0];

internalField   nonuniform List<scalar> 
12640
(
1.8856e-10
-1.88525e-10
5.48699e-10
-3.60157e-10
8.68826e-10
-3.20114e-10
1.02612e-09
-1.57315e-10
9.60021e-10
6.60842e-11
6.44034e-10
3.15986e-10
7.14214e-11
5.72634e-10
-7.5287e-10
8.24296e-10
-1.81689e-09
1.06402e-09
-3.10448e-09
1.28759e-09
-4.59697e-09
1.49247e-09
-6.27421e-09
1.67722e-09
-8.1153e-09
1.84109e-09
-1.0099e-08
1.98372e-09
-1.22041e-08
2.1051e-09
-1.44095e-08
2.20547e-09
-1.66948e-08
2.28524e-09
-1.90397e-08
2.34491e-09
-2.14248e-08
2.38511e-09
-2.38313e-08
2.40648e-09
-2.6241e-08
2.40972e-09
-2.86366e-08
2.39563e-09
-3.10016e-08
2.36496e-09
-3.33201e-08
2.31854e-09
-3.55773e-08
2.25715e-09
-3.77589e-08
2.18164e-09
-3.98517e-08
2.09281e-09
-4.18432e-08
1.99149e-09
-4.37217e-08
1.8785e-09
-4.54764e-08
1.7547e-09
-4.70973e-08
1.6209e-09
-4.85753e-08
1.47793e-09
-4.99019e-08
1.32665e-09
-5.10698e-08
1.16793e-09
-5.20725e-08
1.00263e-09
-5.29041e-08
8.31633e-10
-5.35599e-08
6.55811e-10
-5.4036e-08
4.76064e-10
-5.43293e-08
2.9331e-10
-5.44377e-08
1.08466e-10
-5.43602e-08
-7.75167e-11
-5.40966e-08
-2.63633e-10
-5.36477e-08
-4.48879e-10
-5.30155e-08
-6.32271e-10
-5.22027e-08
-8.12804e-10
-5.12132e-08
-9.8943e-10
-5.00521e-08
-1.1611e-09
-4.87254e-08
-1.32678e-09
-4.724e-08
-1.48538e-09
-4.56042e-08
-1.6358e-09
-4.38272e-08
-1.77696e-09
-4.19194e-08
-1.9078e-09
-3.98922e-08
-2.02721e-09
-3.77581e-08
-2.13412e-09
-3.55306e-08
-2.22752e-09
-3.32241e-08
-2.30644e-09
-3.08543e-08
-2.36987e-09
-2.84374e-08
-2.41685e-09
-2.59909e-08
-2.44651e-09
-2.35329e-08
-2.45803e-09
-2.10823e-08
-2.45062e-09
-1.86587e-08
-2.4236e-09
-1.62823e-08
-2.37635e-09
-1.39739e-08
-2.3084e-09
-1.17545e-08
-2.21937e-09
-9.64554e-09
-2.109e-09
-7.66833e-09
-1.97721e-09
-5.84418e-09
-1.82416e-09
-4.19394e-09
-1.65025e-09
-2.73771e-09
-1.45623e-09
-1.49435e-09
-1.24335e-09
-4.80783e-10
-1.01357e-09
2.89116e-10
-7.69904e-10
8.06181e-10
-5.17064e-10
1.06872e-09
-2.62534e-10
1.08723e-09
-1.85082e-11
8.9228e-10
1.94939e-10
5.4874e-10
3.43531e-10
1.82288e-10
3.66451e-10
1.8229e-10
3.6289e-10
-5.5144e-10
8.76527e-10
-8.73775e-10
1.19956e-09
-6.43146e-10
1.11343e-09
-7.11692e-11
4.83204e-10
6.96285e-10
-7.63391e-10
1.56258e-09
-2.65503e-09
2.46424e-09
-5.19056e-09
3.35983e-09
-8.34888e-09
4.22235e-09
-1.20955e-08
5.03417e-09
-1.63868e-08
5.78386e-09
-2.11737e-08
6.46413e-09
-2.64032e-08
7.07058e-09
-3.20203e-08
7.60081e-09
-3.79691e-08
8.05381e-09
-4.41933e-08
8.42967e-09
-5.06372e-08
8.72922e-09
-5.72462e-08
8.95386e-09
-6.39666e-08
9.10548e-09
-7.07464e-08
9.18626e-09
-7.75353e-08
9.19862e-09
-8.42849e-08
9.14522e-09
-9.09487e-08
9.02883e-09
-9.74825e-08
8.85234e-09
-1.03844e-07
8.61872e-09
-1.09993e-07
8.33102e-09
-1.15893e-07
7.99232e-09
-1.21507e-07
7.60574e-09
-1.26803e-07
7.1744e-09
-1.3175e-07
6.70149e-09
-1.36319e-07
6.19022e-09
-1.40485e-07
5.64379e-09
-1.44224e-07
5.06549e-09
-1.47515e-07
4.45862e-09
-1.50338e-07
3.82652e-09
-1.52679e-07
3.17258e-09
-1.54524e-07
2.50023e-09
-1.55861e-07
1.81296e-09
-1.56682e-07
1.11429e-09
-1.56981e-07
4.07834e-10
-1.56756e-07
-3.02732e-10
-1.56006e-07
-1.01366e-09
-1.54734e-07
-1.72114e-09
-1.52945e-07
-2.42131e-09
-1.50647e-07
-3.11026e-09
-1.47853e-07
-3.78404e-09
-1.44575e-07
-4.43863e-09
-1.40832e-07
-5.06997e-09
-1.36643e-07
-5.67398e-09
-1.32032e-07
-6.24657e-09
-1.27026e-07
-6.78361e-09
-1.21653e-07
-7.28102e-09
-1.15945e-07
-7.73475e-09
-1.09938e-07
-8.14084e-09
-1.0367e-07
-8.49542e-09
-9.71822e-08
-8.79471e-09
-9.0517e-08
-9.0351e-09
-8.37207e-08
-9.21313e-09
-7.68417e-08
-9.32555e-09
-6.99303e-08
-9.36935e-09
-6.30391e-08
-9.34182e-09
-5.62221e-08
-9.24057e-09
-4.95349e-08
-9.06359e-09
-4.3034e-08
-8.8093e-09
-3.67767e-08
-8.47667e-09
-3.08205e-08
-8.06527e-09
-2.52223e-08
-7.57544e-09
-2.0038e-08
-7.00842e-09
-1.53216e-08
-6.36666e-09
-1.11237e-08
-5.65415e-09
-7.49005e-09
-4.87696e-09
-4.4596e-09
-4.04402e-09
-2.06106e-09
-3.16845e-09
-3.08663e-10
-2.26945e-09
8.0425e-10
-1.37545e-09
1.31467e-09
-5.28927e-10
1.30343e-09
2.06182e-10
9.12932e-10
7.34034e-10
3.66382e-10
9.12999e-10
5.48672e-10
3.2822e-10
-8.79646e-10
6.60464e-10
-1.20603e-09
6.05327e-10
-5.88011e-10
-9.3512e-11
6.2766e-10
-1.60375e-09
2.20653e-09
-4.02287e-09
3.98169e-09
-7.39438e-09
5.83574e-09
-1.17221e-08
7.6875e-09
-1.69808e-08
9.48107e-09
-2.31247e-08
1.11781e-08
-3.00933e-08
1.27525e-08
-3.78159e-08
1.41867e-08
-4.62149e-08
1.54697e-08
-5.52086e-08
1.65945e-08
-6.47126e-08
1.75578e-08
-7.46414e-08
1.83585e-08
-8.49096e-08
1.89975e-08
-9.54327e-08
1.94769e-08
-1.06127e-07
1.98002e-08
-1.16913e-07
1.99716e-08
-1.2771e-07
1.99957e-08
-1.38443e-07
1.9878e-08
-1.49038e-07
1.96242e-08
-1.59426e-07
1.92402e-08
-1.69539e-07
1.87323e-08
-1.79315e-07
1.8107e-08
-1.88694e-07
1.73708e-08
-1.97619e-07
1.65304e-08
-2.06037e-07
1.55926e-08
-2.139e-07
1.45643e-08
-2.21162e-07
1.34524e-08
-2.27782e-07
1.2264e-08
-2.33723e-07
1.10061e-08
-2.3895e-07
9.68613e-09
-2.43435e-07
8.31123e-09
-2.47151e-07
6.88886e-09
-2.50077e-07
5.42652e-09
-2.52196e-07
3.93186e-09
-2.53495e-07
2.41261e-09
-2.53964e-07
8.76676e-10
-2.53598e-07
-6.67935e-10
-2.52399e-07
-2.21304e-09
-2.5037e-07
-3.75034e-09
-2.4752e-07
-5.27145e-09
-2.43862e-07
-6.76785e-09
-2.39415e-07
-8.23087e-09
-2.34202e-07
-9.65182e-09
-2.2825e-07
-1.10219e-08
-2.21592e-07
-1.23323e-08
-2.14264e-07
-1.35741e-08
-2.06309e-07
-1.47385e-08
-1.97774e-07
-1.58167e-08
-1.88708e-07
-1.68e-08
-1.79169e-07
-1.768e-08
-1.69216e-07
-1.84482e-08
-1.58914e-07
-1.90968e-08
-1.48332e-07
-1.9618e-08
-1.3754e-07
-2.00045e-08
-1.26616e-07
-2.02495e-08
-1.15639e-07
-2.03468e-08
-1.0469e-07
-2.02908e-08
-9.38536e-08
-2.00768e-08
-8.32165e-08
-1.97007e-08
-7.28659e-08
-1.91598e-08
-6.28902e-08
-1.84525e-08
-5.3377e-08
-1.75784e-08
-4.44131e-08
-1.65393e-08
-3.60826e-08
-1.53389e-08
-2.84656e-08
-1.39837e-08
-2.16362e-08
-1.24836e-08
-1.56598e-08
-1.08533e-08
-1.05904e-08
-9.11345e-09
-6.46535e-09
-7.2935e-09
-3.30006e-09
-5.43475e-09
-1.07993e-09
-3.59559e-09
2.49977e-10
-1.85883e-09
7.98252e-10
-3.42084e-10
7.42528e-10
7.89755e-10
3.46196e-10
1.30933e-09
8.94874e-10
1.71545e-10
-1.05121e-09
1.05659e-10
-1.14012e-09
-5.81096e-10
9.87305e-11
-2.14818e-09
2.19477e-09
-4.76963e-09
4.82798e-09
-8.5499e-09
7.76198e-09
-1.35375e-08
1.08233e-08
-1.9737e-08
1.3887e-08
-2.71194e-08
1.68635e-08
-3.56301e-08
1.96888e-08
-4.51958e-08
2.2318e-08
-5.5729e-08
2.472e-08
-6.71331e-08
2.68737e-08
-7.93043e-08
2.87658e-08
-9.21352e-08
3.03886e-08
-1.05516e-07
3.1739e-08
-1.19335e-07
3.2817e-08
-1.33484e-07
3.36254e-08
-1.47852e-07
3.41689e-08
-1.62335e-07
3.44537e-08
-1.76826e-07
3.44876e-08
-1.91227e-07
3.4279e-08
-2.05441e-07
3.38372e-08
-2.19373e-07
3.31723e-08
-2.32935e-07
3.22945e-08
-2.46043e-07
3.12148e-08
-2.58616e-07
2.99443e-08
-2.7058e-07
2.84943e-08
-2.81864e-07
2.68765e-08
-2.92402e-07
2.51026e-08
-3.02134e-07
2.31846e-08
-3.11005e-07
2.11346e-08
-3.18964e-07
1.8965e-08
-3.25966e-07
1.66882e-08
-3.31972e-07
1.43169e-08
-3.36946e-07
1.18638e-08
-3.40862e-07
9.34195e-09
-3.43695e-07
6.76463e-09
-3.45427e-07
4.14521e-09
-3.46048e-07
1.49735e-09
-3.45551e-07
-1.16506e-09
-3.43936e-07
-3.82794e-09
-3.41209e-07
-6.47698e-09
-3.37383e-07
-9.09765e-09
-3.32476e-07
-1.16753e-08
-3.26512e-07
-1.4195e-08
-3.19522e-07
-1.66417e-08
-3.11543e-07
-1.90005e-08
-3.02619e-07
-2.1256e-08
-2.928e-07
-2.33932e-08
-2.82142e-07
-2.53969e-08
-2.70707e-07
-2.72521e-08
-2.58563e-07
-2.8944e-08
-2.45784e-07
-3.04583e-08
-2.32452e-07
-3.17807e-08
-2.18651e-07
-3.28978e-08
-2.04472e-07
-3.37966e-08
-1.90012e-07
-3.44649e-08
-1.7537e-07
-3.48914e-08
-1.60651e-07
-3.50657e-08
-1.45963e-07
-3.49787e-08
-1.31417e-07
-3.46228e-08
-1.17126e-07
-3.3992e-08
-1.03203e-07
-3.30821e-08
-8.97648e-08
-3.18911e-08
-7.69234e-08
-3.04198e-08
-6.47906e-08
-2.86721e-08
-5.34738e-08
-2.66558e-08
-4.30742e-08
-2.43833e-08
-3.36845e-08
-2.18733e-08
-2.53858e-08
-1.9152e-08
-1.8243e-08
-1.62562e-08
-1.23007e-08
-1.32358e-08
-7.57609e-09
-1.01594e-08
-4.05161e-09
-7.12006e-09
-1.66516e-09
-4.24527e-09
-2.98728e-10
-1.70852e-09
2.34318e-10
2.56701e-10
2.04166e-10
1.33948e-09
1.09905e-09
-4.55927e-11
-1.00563e-09
-6.44953e-10
-5.40784e-10
-2.13296e-09
1.58674e-09
-4.7461e-09
4.80791e-09
-8.64575e-09
8.7276e-09
-1.39295e-08
1.30457e-08
-2.06415e-08
1.75353e-08
-2.87816e-08
2.20272e-08
-3.83148e-08
2.63966e-08
-4.91778e-08
3.05518e-08
-6.12859e-08
3.44262e-08
-7.45382e-08
3.79723e-08
-8.88216e-08
4.11571e-08
-1.04015e-07
4.39589e-08
-1.1999e-07
4.63642e-08
-1.36618e-07
4.83665e-08
-1.53765e-07
4.99643e-08
-1.713e-07
5.11604e-08
-1.89092e-07
5.19605e-08
-2.07011e-07
5.23732e-08
-2.24933e-07
5.2409e-08
-2.42734e-07
5.208e-08
-2.60296e-07
5.13996e-08
-2.77506e-07
5.03824e-08
-2.94255e-07
4.90438e-08
-3.1044e-07
4.73996e-08
-3.25963e-07
4.54666e-08
-3.4073e-07
4.32618e-08
-3.54656e-07
4.08025e-08
-3.6766e-07
3.81067e-08
-3.79668e-07
3.51923e-08
-3.90611e-07
3.20778e-08
-4.00428e-07
2.87818e-08
-4.09063e-07
2.53233e-08
-4.16468e-07
2.17214e-08
-4.226e-07
1.79958e-08
-4.27424e-07
1.41661e-08
-4.30912e-07
1.02525e-08
-4.33042e-07
6.27545e-09
-4.338e-07
2.25568e-09
-4.33179e-07
-1.7857e-09
-4.3118e-07
-5.82727e-09
-4.2781e-07
-9.84732e-09
-4.23084e-07
-1.38238e-08
-4.17024e-07
-1.77345e-08
-4.09663e-07
-2.15568e-08
-4.01036e-07
-2.5268e-08
-3.91192e-07
-2.88453e-08
-3.80182e-07
-3.22658e-08
-3.68068e-07
-3.55066e-08
-3.5492e-07
-3.8545e-08
-3.40814e-07
-4.13584e-08
-3.25833e-07
-4.39248e-08
-3.10069e-07
-4.62223e-08
-2.9362e-07
-4.82301e-08
-2.7659e-07
-4.99278e-08
-2.5909e-07
-5.12963e-08
-2.41238e-07
-5.23174e-08
-2.23155e-07
-5.29746e-08
-2.04967e-07
-5.32528e-08
-1.86807e-07
-5.3139e-08
-1.68808e-07
-5.26222e-08
-1.51106e-07
-5.16942e-08
-1.33838e-07
-5.03497e-08
-1.17142e-07
-4.8587e-08
-1.01154e-07
-4.64082e-08
-8.6005e-08
-4.38207e-08
-7.18231e-08
-4.08377e-08
-5.87268e-08
-3.74795e-08
-4.68246e-08
-3.37755e-08
-3.62101e-08
-2.97665e-08
-2.6959e-08
-2.55074e-08
-1.91227e-08
-2.10721e-08
-1.27234e-08
-1.65587e-08
-7.74628e-09
-1.20972e-08
-4.13167e-09
-7.85988e-09
-1.76606e-09
-4.07414e-09
-4.72445e-10
-1.03691e-09
4.88814e-13
8.66555e-10
1.09954e-09
-2.89924e-10
-7.15703e-10
-1.49925e-09
6.68547e-10
-3.89413e-09
3.9816e-09
-7.6706e-09
8.58439e-09
-1.29636e-08
1.40206e-08
-1.98529e-08
1.99351e-08
-2.83703e-08
2.60526e-08
-3.85055e-08
3.21625e-08
-5.0214e-08
3.81051e-08
-6.34226e-08
4.37604e-08
-7.80354e-08
4.9039e-08
-9.39388e-08
5.38757e-08
-1.11006e-07
5.82239e-08
-1.29099e-07
6.2052e-08
-1.48074e-07
6.53397e-08
-1.67784e-07
6.8076e-08
-1.88076e-07
7.02571e-08
-2.08801e-07
7.18852e-08
-2.29808e-07
7.2967e-08
-2.50948e-07
7.35131e-08
-2.72075e-07
7.35368e-08
-2.9305e-07
7.30543e-08
-3.13734e-07
7.20834e-08
-3.33995e-07
7.06437e-08
-3.53707e-07
6.87562e-08
-3.7275e-07
6.64426e-08
-3.91009e-07
6.37258e-08
-4.08377e-07
6.06295e-08
-4.24752e-07
5.71776e-08
-4.40041e-07
5.33951e-08
-4.54155e-07
4.9307e-08
-4.67017e-07
4.49391e-08
-4.78552e-07
4.03175e-08
-4.88698e-07
3.54686e-08
-4.97395e-07
3.04193e-08
-5.04597e-07
2.51971e-08
-5.1026e-07
1.98297e-08
-5.14353e-07
1.43453e-08
-5.1685e-07
8.7726e-09
-5.17735e-07
3.14063e-09
-5.17e-07
-2.52102e-09
-5.14645e-07
-8.18236e-09
-5.10679e-07
-1.3813e-08
-5.05121e-07
-1.9382e-08
-4.97997e-07
-2.48584e-08
-4.89343e-07
-3.02106e-08
-4.79204e-07
-3.5407e-08
-4.67634e-07
-4.04157e-08
-4.54695e-07
-4.52048e-08
-4.40459e-07
-4.97425e-08
-4.25007e-07
-5.39973e-08
-4.08427e-07
-5.79379e-08
-3.90818e-07
-6.15335e-08
-3.72286e-07
-6.47543e-08
-3.52945e-07
-6.75712e-08
-3.32917e-07
-6.99564e-08
-3.12329e-07
-7.18835e-08
-2.91319e-07
-7.33279e-08
-2.70027e-07
-7.42669e-08
-2.48599e-07
-7.46803e-08
-2.27188e-07
-7.45506e-08
-2.05946e-07
-7.38637e-08
-1.85032e-07
-7.26089e-08
-1.64601e-07
-7.07799e-08
-1.44813e-07
-6.83757e-08
-1.2582e-07
-6.54007e-08
-1.07774e-07
-6.18666e-08
-9.0819e-08
-5.7793e-08
-7.50888e-08
-5.32097e-08
-6.07058e-08
-4.81585e-08
-4.77761e-08
-4.26961e-08
-3.63856e-08
-3.68979e-08
-2.65948e-08
-3.08628e-08
-1.84342e-08
-2.47193e-08
-1.18973e-08
-1.8634e-08
-6.93528e-09
-1.28219e-08
-3.44974e-09
-7.55968e-09
-1.28697e-09
-3.19967e-09
-2.31933e-10
-1.8847e-10
8.6761e-10
-5.43515e-10
-1.72168e-10
-2.40008e-09
2.5251e-09
-5.76094e-09
7.34245e-09
-1.07718e-08
1.35953e-08
-1.75319e-08
2.07807e-08
-2.60955e-08
2.84987e-08
-3.64747e-08
3.64318e-08
-4.86444e-08
4.43322e-08
-6.25469e-08
5.20077e-08
-7.80971e-08
5.93105e-08
-9.51869e-08
6.61288e-08
-1.1369e-07
7.23789e-08
-1.33466e-07
7.80001e-08
-1.54364e-07
8.29498e-08
-1.76224e-07
8.72001e-08
-1.98883e-07
9.07349e-08
-2.22174e-07
9.35475e-08
-2.45927e-07
9.5639e-08
-2.69977e-07
9.70167e-08
-2.94157e-07
9.7693e-08
-3.18305e-07
9.76846e-08
-3.42262e-07
9.70114e-08
-3.65875e-07
9.56961e-08
-3.88995e-07
9.37638e-08
-4.1148e-07
9.12412e-08
-4.33194e-07
8.81569e-08
-4.54009e-07
8.45406e-08
-4.73803e-07
8.0423e-08
-4.92461e-07
7.58359e-08
-5.09877e-07
7.08117e-08
-5.25954e-07
6.53836e-08
-5.40601e-07
5.95857e-08
-5.53735e-07
5.34522e-08
-5.65285e-07
4.70184e-08
-5.75186e-07
4.03199e-08
-5.83381e-07
3.33928e-08
-5.89826e-07
2.6274e-08
-5.94481e-07
1.90009e-08
-5.9732e-07
1.16114e-08
-5.98324e-07
4.14414e-09
-5.97483e-07
-3.36179e-09
-5.94798e-07
-1.08666e-08
-5.90281e-07
-1.83302e-08
-5.83952e-07
-2.57117e-08
-5.7584e-07
-3.297e-08
-5.65987e-07
-4.00635e-08
-5.54444e-07
-4.69505e-08
-5.4127e-07
-5.35888e-08
-5.26539e-07
-5.99366e-08
-5.10329e-07
-6.5952e-08
-4.92733e-07
-7.15934e-08
-4.73851e-07
-7.68198e-08
-4.53794e-07
-8.15911e-08
-4.3268e-07
-8.5868e-08
-4.10639e-07
-8.96125e-08
-3.87806e-07
-9.27885e-08
-3.64328e-07
-9.53617e-08
-3.40356e-07
-9.73001e-08
-3.16048e-07
-9.85745e-08
-2.91569e-07
-9.91592e-08
-2.67088e-07
-9.90319e-08
-2.42777e-07
-9.81748e-08
-2.18811e-07
-9.65752e-08
-1.95365e-07
-9.4226e-08
-1.72613e-07
-9.1127e-08
-1.50729e-07
-8.72856e-08
-1.29877e-07
-8.27183e-08
-1.10217e-07
-7.74525e-08
-9.18991e-08
-7.1528e-08
-7.50575e-08
-6.50002e-08
-5.98108e-08
-5.79428e-08
-4.62565e-08
-5.04522e-08
-3.44665e-08
-4.26527e-08
-2.44831e-08
-3.47028e-08
-1.63136e-08
-2.68035e-08
-9.92628e-09
-1.92092e-08
-5.24619e-09
-1.22398e-08
-2.15201e-09
-6.29385e-09
-4.74992e-10
-1.86548e-09
3.9262e-10
-7.96619e-10
6.2445e-10
-3.3131e-09
5.04161e-09
-7.66705e-09
1.16964e-08
-1.39497e-08
1.98779e-08
-2.22192e-08
2.90502e-08
-3.24982e-08
3.87777e-08
-4.47747e-08
4.87084e-08
-5.90041e-08
5.85616e-08
-7.51123e-08
6.81158e-08
-9.29995e-08
7.71978e-08
-1.12544e-07
8.56737e-08
-1.33608e-07
9.3442e-08
-1.56035e-07
1.00428e-07
-1.79662e-07
1.06577e-07
-2.04316e-07
1.11854e-07
-2.29818e-07
1.16237e-07
-2.55987e-07
1.19716e-07
-2.82638e-07
1.2229e-07
-3.0959e-07
1.23968e-07
-3.36661e-07
1.24764e-07
-3.63674e-07
1.24698e-07
-3.90455e-07
1.23792e-07
-4.16835e-07
1.22076e-07
-4.42652e-07
1.1958e-07
-4.67748e-07
1.16338e-07
-4.91976e-07
1.12384e-07
-5.15192e-07
1.07757e-07
-5.37263e-07
1.02494e-07
-5.58063e-07
9.66356e-08
-5.77474e-07
9.0223e-08
-5.95389e-07
8.32981e-08
-6.11707e-07
7.59038e-08
-6.26338e-07
6.80839e-08
-6.39203e-07
5.98828e-08
-6.50229e-07
5.13459e-08
-6.59355e-07
4.25191e-08
-6.6653e-07
3.34493e-08
-6.71713e-07
2.4184e-08
-6.74874e-07
1.47715e-08
-6.7599e-07
5.26084e-09
-6.75054e-07
-4.29831e-09
-6.72065e-07
-1.38555e-08
-6.67036e-07
-2.33596e-08
-6.59989e-07
-3.27588e-08
-6.50958e-07
-4.20011e-08
-6.39987e-07
-5.10336e-08
-6.27134e-07
-5.98035e-08
-6.12466e-07
-6.82575e-08
-5.9606e-07
-7.63426e-08
-5.78006e-07
-8.40059e-08
-5.58404e-07
-9.1195e-08
-5.37366e-07
-9.78581e-08
-5.15012e-07
-1.03945e-07
-4.91475e-07
-1.09405e-07
-4.66896e-07
-1.14192e-07
-4.41424e-07
-1.1826e-07
-4.1522e-07
-1.21566e-07
-3.8845e-07
-1.24071e-07
-3.61287e-07
-1.25737e-07
-3.33912e-07
-1.26534e-07
-3.0651e-07
-1.26434e-07
-2.79269e-07
-1.25416e-07
-2.5238e-07
-1.23464e-07
-2.26034e-07
-1.20571e-07
-2.00423e-07
-1.16738e-07
-1.75732e-07
-1.11976e-07
-1.52145e-07
-1.06306e-07
-1.29834e-07
-9.97637e-08
-1.08961e-07
-9.24002e-08
-8.9677e-08
-8.42845e-08
-7.21119e-08
-7.55079e-08
-5.63766e-08
-6.61875e-08
-4.2557e-08
-5.64724e-08
-3.07104e-08
-4.65493e-08
-2.08625e-08
-3.66515e-08
-1.30039e-08
-2.70678e-08
-7.08834e-09
-1.81553e-08
-3.03266e-09
-1.03495e-08
-7.18613e-10
-4.17952e-09
-3.25992e-10
-1.04416e-09
1.66859e-09
-4.21837e-09
8.21584e-09
-9.57125e-09
1.70492e-08
-1.71393e-08
2.7446e-08
-2.69368e-08
3.88477e-08
-3.89518e-08
5.07926e-08
-5.31439e-08
6.29005e-08
-6.94457e-08
7.48633e-08
-8.77638e-08
8.64339e-08
-1.07982e-07
9.74157e-08
-1.29963e-07
1.07655e-07
-1.53554e-07
1.17033e-07
-1.78587e-07
1.25461e-07
-2.04884e-07
1.32874e-07
-2.32258e-07
1.39229e-07
-2.60518e-07
1.44497e-07
-2.89468e-07
1.48665e-07
-3.1891e-07
1.51733e-07
-3.48649e-07
1.53707e-07
-3.78489e-07
1.54604e-07
-4.08239e-07
1.54448e-07
-4.37712e-07
1.53265e-07
-4.66725e-07
1.51089e-07
-4.95102e-07
1.47958e-07
-5.22675e-07
1.43911e-07
-5.49282e-07
1.38991e-07
-5.7477e-07
1.33244e-07
-5.98992e-07
1.26716e-07
-6.21813e-07
1.19457e-07
-6.43106e-07
1.11516e-07
-6.62753e-07
1.02945e-07
-6.80647e-07
9.37972e-08
-6.96689e-07
8.41257e-08
-7.10791e-07
7.39854e-08
-7.22878e-07
6.34322e-08
-7.32881e-07
5.25227e-08
-7.40746e-07
4.13145e-08
-7.46428e-07
2.98662e-08
-7.49894e-07
1.82372e-08
-7.51121e-07
6.48791e-09
-7.50099e-07
-5.32042e-09
-7.46829e-07
-1.71257e-08
-7.41323e-07
-2.88651e-08
-7.33607e-07
-4.0475e-08
-7.23717e-07
-5.18911e-08
-7.11702e-07
-6.30488e-08
-6.97622e-07
-7.3883e-08
-6.81551e-07
-8.43285e-08
-6.63574e-07
-9.43203e-08
-6.43786e-07
-1.03793e-07
-6.22298e-07
-1.12684e-07
-5.99228e-07
-1.20928e-07
-5.74709e-07
-1.28464e-07
-5.48883e-07
-1.35232e-07
-5.21902e-07
-1.41173e-07
-4.93928e-07
-1.46233e-07
-4.65135e-07
-1.50359e-07
-4.35702e-07
-1.53504e-07
-4.05816e-07
-1.55623e-07
-3.75671e-07
-1.56678e-07
-3.45468e-07
-1.56637e-07
-3.15409e-07
-1.55475e-07
-2.857e-07
-1.53173e-07
-2.56547e-07
-1.49724e-07
-2.28156e-07
-1.4513e-07
-2.00727e-07
-1.39405e-07
-1.74457e-07
-1.32576e-07
-1.49533e-07
-1.24687e-07
-1.26132e-07
-1.15801e-07
-1.04417e-07
-1.05999e-07
-8.45338e-08
-9.53913e-08
-6.66072e-08
-8.41141e-08
-5.07395e-08
-7.23401e-08
-3.70065e-08
-6.02824e-08
-2.54552e-08
-4.82028e-08
-1.61024e-08
-3.64206e-08
-8.93434e-09
-2.53233e-08
-3.90843e-09
-1.53754e-08
-9.57545e-10
-7.1304e-09
-1.28354e-09
-1.28376e-09
2.95234e-09
-5.10491e-09
1.2037e-08
-1.14492e-08
2.33935e-08
-2.03002e-08
3.62969e-08
-3.16279e-08
5.01754e-08
-4.53834e-08
6.45482e-08
-6.14962e-08
7.90133e-08
-7.9873e-08
9.32402e-08
-1.00399e-07
1.0696e-07
-1.22938e-07
1.19955e-07
-1.47338e-07
1.32055e-07
-1.7343e-07
1.43125e-07
-2.01031e-07
1.53062e-07
-2.29951e-07
1.61793e-07
-2.59987e-07
1.69265e-07
-2.90937e-07
1.75446e-07
-3.2259e-07
1.80319e-07
-3.54737e-07
1.8388e-07
-3.87169e-07
1.86139e-07
-4.19678e-07
1.87113e-07
-4.5206e-07
1.86829e-07
-4.84115e-07
1.8532e-07
-5.15649e-07
1.82623e-07
-5.46475e-07
1.78784e-07
-5.76411e-07
1.73848e-07
-6.05286e-07
1.67866e-07
-6.32935e-07
1.60893e-07
-6.59204e-07
1.52985e-07
-6.83945e-07
1.44199e-07
-7.07025e-07
1.34595e-07
-7.28315e-07
1.24236e-07
-7.47703e-07
1.13184e-07
-7.65082e-07
1.01505e-07
-7.80359e-07
8.92624e-08
-7.93451e-07
7.65246e-08
-8.04288e-07
6.33594e-08
-8.12809e-07
4.98359e-08
-8.18968e-07
3.60245e-08
-8.22727e-07
2.19966e-08
-8.24064e-07
7.82483e-09
-8.22967e-07
-6.41741e-09
-8.19437e-07
-2.06555e-08
-8.13488e-07
-3.4814e-08
-8.05146e-07
-4.88167e-08
-7.94451e-07
-6.25864e-08
-7.81454e-07
-7.60457e-08
-7.66221e-07
-8.91165e-08
-7.48829e-07
-1.01721e-07
-7.29368e-07
-1.13781e-07
-7.07943e-07
-1.25218e-07
-6.84669e-07
-1.35957e-07
-6.59675e-07
-1.45922e-07
-6.331e-07
-1.55038e-07
-6.05097e-07
-1.63234e-07
-5.75829e-07
-1.70441e-07
-5.45469e-07
-1.76593e-07
-5.142e-07
-1.81628e-07
-4.82214e-07
-1.85489e-07
-4.49713e-07
-1.88125e-07
-4.16902e-07
-1.89489e-07
-3.83994e-07
-1.89545e-07
-3.51206e-07
-1.88263e-07
-3.18758e-07
-1.85622e-07
-2.86869e-07
-1.81613e-07
-2.55758e-07
-1.76241e-07
-2.25642e-07
-1.69521e-07
-1.96729e-07
-1.61489e-07
-1.69222e-07
-1.52194e-07
-1.43312e-07
-1.41711e-07
-1.19177e-07
-1.30135e-07
-9.69763e-08
-1.17591e-07
-7.68537e-08
-1.04237e-07
-5.89289e-08
-9.02648e-08
-4.32987e-08
-7.59126e-08
-3.00342e-08
-6.14672e-08
-1.91809e-08
-4.72739e-08
-1.07594e-08
-3.37449e-08
-4.76803e-09
-2.13668e-08
-1.18929e-09
-1.07091e-08
-2.47283e-09
-1.51468e-09
4.467e-09
-5.96747e-09
1.64898e-08
-1.32877e-08
3.07137e-08
-2.34088e-08
4.6418e-08
-3.62574e-08
6.30241e-08
-5.17473e-08
8.0038e-08
-6.97758e-08
9.70417e-08
-9.02224e-08
1.13687e-07
-1.12949e-07
1.29686e-07
-1.37799e-07
1.44805e-07
-1.64601e-07
1.58857e-07
-1.9317e-07
1.71694e-07
-2.23309e-07
1.83201e-07
-2.54811e-07
1.93296e-07
-2.87464e-07
2.01918e-07
-3.21048e-07
2.0903e-07
-3.55342e-07
2.14613e-07
-3.90125e-07
2.18663e-07
-4.25174e-07
2.21188e-07
-4.60271e-07
2.2221e-07
-4.95198e-07
2.21757e-07
-5.29746e-07
2.19868e-07
-5.6371e-07
2.16587e-07
-5.9689e-07
2.11964e-07
-6.29096e-07
2.06054e-07
-6.60146e-07
1.98916e-07
-6.89866e-07
1.90613e-07
-7.18091e-07
1.8121e-07
-7.44669e-07
1.70776e-07
-7.69455e-07
1.59381e-07
-7.92316e-07
1.47097e-07
-8.13129e-07
1.33998e-07
-8.31785e-07
1.2016e-07
-8.48183e-07
1.05661e-07
-8.62237e-07
9.05783e-08
-8.7387e-07
7.49931e-08
-8.83021e-07
5.89866e-08
-8.89638e-07
4.26415e-08
-8.93683e-07
2.6042e-08
-8.95132e-07
9.27329e-09
-8.93971e-07
-7.57795e-09
-8.90203e-07
-2.4424e-08
-8.83841e-07
-4.11762e-08
-8.74913e-07
-5.77448e-08
-8.6346e-07
-7.40391e-08
-8.49537e-07
-8.99681e-08
-8.33214e-07
-1.0544e-07
-8.14571e-07
-1.20364e-07
-7.93705e-07
-1.34647e-07
-7.70724e-07
-1.48199e-07
-7.45752e-07
-1.6093e-07
-7.18923e-07
-1.72751e-07
-6.90387e-07
-1.83575e-07
-6.60302e-07
-1.93319e-07
-6.28842e-07
-2.01902e-07
-5.96189e-07
-2.09246e-07
-5.62538e-07
-2.1528e-07
-5.28091e-07
-2.19936e-07
-4.9306e-07
-2.23156e-07
-4.57664e-07
-2.24885e-07
-4.22128e-07
-2.25081e-07
-3.86681e-07
-2.23709e-07
-3.51556e-07
-2.20747e-07
-3.16986e-07
-2.16184e-07
-2.83203e-07
-2.10024e-07
-2.50436e-07
-2.02288e-07
-2.18911e-07
-1.93014e-07
-1.88842e-07
-1.82263e-07
-1.60437e-07
-1.70116e-07
-1.33889e-07
-1.56684e-07
-1.09375e-07
-1.42106e-07
-8.70553e-08
-1.26556e-07
-6.70714e-08
-1.10249e-07
-4.95424e-08
-9.34416e-08
-3.45655e-08
-7.64441e-08
-2.22162e-08
-5.96232e-08
-1.255e-08
-4.34111e-08
-5.606e-09
-2.83108e-08
-1.41292e-09
-1.49022e-08
-3.88575e-09
-1.73692e-09
6.20393e-09
-6.80426e-09
2.15571e-08
-1.50808e-08
3.89903e-08
-2.64533e-08
5.77906e-08
-4.08065e-08
7.73773e-08
-5.8017e-08
9.72485e-08
-7.79497e-08
1.16974e-07
-1.00456e-07
1.36193e-07
-1.25371e-07
1.54602e-07
-1.52518e-07
1.71953e-07
-1.81707e-07
1.88045e-07
-2.12732e-07
2.0272e-07
-2.45383e-07
2.15852e-07
-2.79437e-07
2.2735e-07
-3.14667e-07
2.37148e-07
-3.50842e-07
2.45205e-07
-3.87728e-07
2.51499e-07
-4.2509e-07
2.56025e-07
-4.62696e-07
2.58794e-07
-5.00314e-07
2.59828e-07
-5.37717e-07
2.59161e-07
-5.74686e-07
2.56836e-07
-6.11003e-07
2.52904e-07
-6.4646e-07
2.47422e-07
-6.80859e-07
2.40452e-07
-7.14007e-07
2.32064e-07
-7.45722e-07
2.22328e-07
-7.75832e-07
2.11321e-07
-8.04176e-07
1.9912e-07
-8.30602e-07
1.85807e-07
-8.54971e-07
1.71466e-07
-8.77154e-07
1.56182e-07
-8.97036e-07
1.40042e-07
-9.14513e-07
1.23137e-07
-9.29491e-07
1.05557e-07
-9.41893e-07
8.73952e-08
-9.51653e-07
6.87457e-08
-9.58715e-07
4.97043e-08
-9.63042e-07
3.03685e-08
-9.64606e-07
1.0837e-08
-9.63393e-07
-8.79006e-09
-9.59406e-07
-2.84111e-08
-9.52659e-07
-4.79235e-08
-9.4318e-07
-6.72234e-08
-9.31013e-07
-8.62062e-08
-9.16215e-07
-1.04766e-07
-8.98857e-07
-1.22798e-07
-8.79026e-07
-1.40195e-07
-8.56821e-07
-1.56852e-07
-8.32356e-07
-1.72664e-07
-8.0576e-07
-1.87526e-07
-7.77174e-07
-2.01337e-07
-7.46753e-07
-2.13996e-07
-7.14666e-07
-2.25406e-07
-6.81093e-07
-2.35475e-07
-6.46227e-07
-2.44113e-07
-6.10269e-07
-2.51237e-07
-5.73434e-07
-2.56771e-07
-5.35943e-07
-2.60646e-07
-4.98028e-07
-2.62801e-07
-4.59923e-07
-2.63186e-07
-4.21871e-07
-2.61762e-07
-3.84116e-07
-2.58502e-07
-3.46905e-07
-2.53395e-07
-3.10483e-07
-2.46445e-07
-2.75095e-07
-2.37677e-07
-2.40977e-07
-2.27132e-07
-2.08362e-07
-2.14877e-07
-1.77472e-07
-2.01006e-07
-1.48516e-07
-1.85639e-07
-1.21692e-07
-1.6893e-07
-9.71778e-08
-1.5107e-07
-7.51372e-08
-1.32289e-07
-5.57135e-08
-1.12865e-07
-3.90314e-08
-9.31263e-08
-2.5197e-08
-7.34575e-08
-1.43008e-08
-5.43074e-08
-6.4206e-09
-3.6191e-08
-1.62848e-09
-1.96943e-08
-5.51422e-09
-1.95103e-09
8.15496e-09
-7.61566e-09
2.72217e-08
-1.68273e-08
4.82019e-08
-2.94296e-08
7.03929e-08
-4.52673e-08
9.32149e-08
-6.41805e-08
1.16162e-07
-8.60015e-08
1.38795e-07
-1.10552e-07
1.60743e-07
-1.37643e-07
1.81693e-07
-1.67074e-07
2.01383e-07
-1.98632e-07
2.19604e-07
-2.32097e-07
2.36184e-07
-2.67237e-07
2.50992e-07
-3.03817e-07
2.6393e-07
-3.41595e-07
2.74926e-07
-3.80326e-07
2.83936e-07
-4.19762e-07
2.90936e-07
-4.5966e-07
2.95922e-07
-4.99772e-07
2.98906e-07
-5.39858e-07
2.99914e-07
-5.79682e-07
2.98984e-07
-6.1901e-07
2.96165e-07
-6.5762e-07
2.91513e-07
-6.95293e-07
2.85094e-07
-7.3182e-07
2.7698e-07
-7.67003e-07
2.67247e-07
-8.00651e-07
2.55976e-07
-8.32585e-07
2.43255e-07
-8.62637e-07
2.29172e-07
-8.90649e-07
2.13819e-07
-9.16475e-07
1.97292e-07
-9.39983e-07
1.79689e-07
-9.61051e-07
1.6111e-07
-9.7957e-07
1.41656e-07
-9.95445e-07
1.21432e-07
-1.00859e-06
1.00543e-07
-1.01894e-06
7.90975e-08
-1.02644e-06
5.72043e-08
-1.03105e-06
3.49747e-08
-1.03274e-06
1.25215e-08
-1.03148e-06
-1.00411e-08
-1.0273e-06
-3.25971e-08
-1.02019e-06
-5.50295e-08
-1.0102e-06
-7.72198e-08
-9.97354e-07
-9.90485e-08
-9.81724e-07
-1.20395e-07
-9.63382e-07
-1.4114e-07
-9.42416e-07
-1.61161e-07
-9.1893e-07
-1.80338e-07
-8.93043e-07
-1.98551e-07
-8.64886e-07
-2.15682e-07
-8.34609e-07
-2.31614e-07
-8.02371e-07
-2.46233e-07
-7.68348e-07
-2.59429e-07
-7.32729e-07
-2.71094e-07
-6.95712e-07
-2.81129e-07
-6.5751e-07
-2.89439e-07
-6.18346e-07
-2.95936e-07
-5.78451e-07
-3.00541e-07
-5.38065e-07
-3.03186e-07
-4.97438e-07
-3.03814e-07
-4.56821e-07
-3.02378e-07
-4.16472e-07
-2.98851e-07
-3.76649e-07
-2.93217e-07
-3.37613e-07
-2.85482e-07
-2.9962e-07
-2.75669e-07
-2.62924e-07
-2.63828e-07
-2.27772e-07
-2.50029e-07
-1.94403e-07
-2.34375e-07
-1.63044e-07
-2.16998e-07
-1.33912e-07
-1.98063e-07
-1.07207e-07
-1.77775e-07
-8.31139e-08
-1.56382e-07
-6.18028e-08
-1.34176e-07
-4.34259e-08
-1.11503e-07
-2.81205e-08
-8.87629e-08
-1.6011e-08
-6.64169e-08
-7.21242e-09
-4.49895e-08
-1.83654e-09
-2.50702e-08
-7.35075e-09
-2.15779e-09
1.03127e-08
-8.40328e-09
3.34672e-08
-1.85291e-08
5.83278e-08
-3.23389e-08
8.42027e-08
-4.96394e-08
1.10515e-07
-7.02354e-08
1.36758e-07
-9.3927e-08
1.62487e-07
-1.20507e-07
1.87323e-07
-1.49758e-07
2.10944e-07
-1.81458e-07
2.33083e-07
-2.15371e-07
2.53517e-07
-2.51257e-07
2.7207e-07
-2.88869e-07
2.88604e-07
-3.27954e-07
3.03014e-07
-3.68255e-07
3.15227e-07
-4.09513e-07
3.25194e-07
-4.51469e-07
3.32892e-07
-4.93865e-07
3.38318e-07
-5.36446e-07
3.41486e-07
-5.78958e-07
3.42426e-07
-6.21155e-07
3.41181e-07
-6.62797e-07
3.37806e-07
-7.03648e-07
3.32365e-07
-7.43485e-07
3.24931e-07
-7.8209e-07
3.15585e-07
-8.19256e-07
3.04412e-07
-8.54786e-07
2.91506e-07
-8.88495e-07
2.76963e-07
-9.20207e-07
2.60884e-07
-9.4976e-07
2.43372e-07
-9.77003e-07
2.24535e-07
-1.0018e-06
2.04484e-07
-1.02402e-06
1.8333e-07
-1.04355e-06
1.6119e-07
-1.0603e-06
1.3818e-07
-1.07418e-06
1.1442e-07
-1.08511e-06
9.00308e-08
-1.09304e-06
6.51364e-08
-1.09793e-06
3.98617e-08
-1.09974e-06
1.43342e-08
-1.09847e-06
-1.13174e-08
-1.0941e-06
-3.69625e-08
-1.08666e-06
-6.24689e-08
-1.07618e-06
-8.7703e-08
-1.0627e-06
-1.1253e-07
-1.04628e-06
-1.36815e-07
-1.02699e-06
-1.60422e-07
-1.00494e-06
-1.83213e-07
-9.80227e-07
-2.05054e-07
-9.5297e-07
-2.25808e-07
-9.23309e-07
-2.45343e-07
-8.91396e-07
-2.63527e-07
-8.57398e-07
-2.80231e-07
-8.21495e-07
-2.95331e-07
-7.83883e-07
-3.08706e-07
-7.44769e-07
-3.20243e-07
-7.04373e-07
-3.29835e-07
-6.62926e-07
-3.37383e-07
-6.2067e-07
-3.42798e-07
-5.77855e-07
-3.46002e-07
-5.34738e-07
-3.4693e-07
-4.91586e-07
-3.45531e-07
-4.48667e-07
-3.4177e-07
-4.06254e-07
-3.35631e-07
-3.64618e-07
-3.27117e-07
-3.24032e-07
-3.16255e-07
-2.84765e-07
-3.03094e-07
-2.47081e-07
-2.87714e-07
-2.11235e-07
-2.70221e-07
-1.77475e-07
-2.50758e-07
-1.46036e-07
-2.29502e-07
-1.17142e-07
-2.06669e-07
-9.10025e-08
-1.82522e-07
-6.78118e-08
-1.57367e-07
-4.77514e-08
-1.31564e-07
-3.09895e-08
-1.05525e-07
-1.76834e-08
-7.9723e-08
-7.98354e-09
-5.46894e-08
-2.03797e-09
-3.10158e-08
-9.38872e-09
-2.35813e-09
1.26709e-08
-9.16959e-09
4.02786e-08
-2.019e-08
6.93482e-08
-3.51858e-08
9.91986e-08
-5.39277e-08
1.29257e-07
-7.61865e-08
1.59017e-07
-1.0173e-07
1.88031e-07
-1.30322e-07
2.15915e-07
-1.6172e-07
2.42342e-07
-1.95673e-07
2.67036e-07
-2.31928e-07
2.89772e-07
-2.70222e-07
3.10365e-07
-3.1029e-07
3.28672e-07
-3.51861e-07
3.44586e-07
-3.94665e-07
3.5803e-07
-4.38428e-07
3.68957e-07
-4.82878e-07
3.77342e-07
-5.27745e-07
3.83185e-07
-5.72762e-07
3.86503e-07
-6.17666e-07
3.87331e-07
-6.62201e-07
3.85716e-07
-7.06116e-07
3.81721e-07
-7.4917e-07
3.75419e-07
-7.91129e-07
3.6689e-07
-8.31768e-07
3.56224e-07
-8.70875e-07
3.43519e-07
-9.08246e-07
3.28877e-07
-9.43688e-07
3.12406e-07
-9.77022e-07
2.94218e-07
-1.00808e-06
2.7443e-07
-1.03671e-06
2.53161e-07
-1.06276e-06
2.30535e-07
-1.0861e-06
2.06678e-07
-1.10663e-06
1.81717e-07
-1.12424e-06
1.55784e-07
-1.13883e-06
1.29013e-07
-1.15034e-06
1.01539e-07
-1.1587e-06
7.34987e-08
-1.16387e-06
4.50332e-08
-1.16582e-06
1.6284e-08
-1.16453e-06
-1.26049e-08
-1.16001e-06
-4.14877e-08
-1.15226e-06
-7.02172e-08
-1.14132e-06
-9.86441e-08
-1.12723e-06
-1.26618e-07
-1.11006e-06
-1.53988e-07
-1.08988e-06
-1.80602e-07
-1.06678e-06
-2.06307e-07
-1.04088e-06
-2.30953e-07