/*--------------------------------*- C++ -*----------------------------------*\
  =========                 |
  \\      /  F ield         | OpenFOAM: The Open Source CFD Toolbox
   \\    /   O peration     | Website:  https://openfoam.org
    \\  /    A nd           | Version:  7
     \\/     M anipulation  |
\*---------------------------------------------------------------------------*/
FoamFile
{
    version     2.0;
    format      ascii;
    class       surfaceScalarField;
    location    "0.1125";
    object      phi;
}
// * * * * * * * * * * * * * * * * * * * * * * * * * * * * * * * * * * * * * //

dimensions      [0 3 -1 0 0 0 0];

internalField   nonuniform List<scalar> 
50880
(
7.96287e-12
-7.99944e-12
3.71842e-11
-2.92181e-11
7.60302e-11
-3.88474e-11
1.18043e-10
-4.20139e-11
1.58089e-10
-4.00494e-11
1.91865e-10
-3.37753e-11
2.16091e-10
-2.4227e-11
2.28448e-10
-1.23564e-11
2.27273e-10
1.17892e-12
2.11455e-10
1.5823e-11
1.80307e-10
3.11432e-11
1.33433e-10
4.68809e-11
7.06564e-11
6.27675e-11
-8.02838e-12
7.86756e-11
-1.02422e-10
9.43957e-11
-2.12257e-10
1.09839e-10
-3.37159e-10
1.24903e-10
-4.76672e-10
1.39515e-10
-6.30278e-10
1.53606e-10
-7.97437e-10
1.67161e-10
-9.77555e-10
1.80115e-10
-1.17001e-09
1.92459e-10
-1.37416e-09
2.04145e-10
-1.58933e-09
2.1517e-10
-1.81485e-09
2.25528e-10
-2.05008e-09
2.35229e-10
-2.29432e-09
2.4424e-10
-2.54692e-09
2.52595e-10
-2.80719e-09
2.60277e-10
-3.07447e-09
2.67278e-10
-3.34809e-09
2.73623e-10
-3.62741e-09
2.79322e-10
-3.91177e-09
2.84368e-10
-4.20056e-09
2.8878e-10
-4.49312e-09
2.9257e-10
-4.78885e-09
2.95729e-10
-5.08713e-09
2.98277e-10
-5.38736e-09
3.00243e-10
-5.68898e-09
3.0162e-10
-5.99139e-09
3.02408e-10
-6.29402e-09
3.02633e-10
-6.59632e-09
3.02305e-10
-6.89776e-09
3.01433e-10
-7.1978e-09
3.00036e-10
-7.49593e-09
2.98133e-10
-7.79167e-09
2.95731e-10
-8.0845e-09
2.92835e-10
-8.37396e-09
2.8946e-10
-8.65958e-09
2.85619e-10
-8.9409e-09
2.81325e-10
-9.21749e-09
2.76594e-10
-9.48892e-09
2.71435e-10
-9.75478e-09
2.65856e-10
-1.00147e-08
2.59874e-10
-1.02682e-08
2.53507e-10
-1.05149e-08
2.46769e-10
-1.07546e-08
2.3967e-10
-1.09868e-08
2.32221e-10
-1.12113e-08
2.24436e-10
-1.14276e-08
2.16331e-10
-1.16355e-08
2.07917e-10
-1.18347e-08
1.99208e-10
-1.20249e-08
1.90217e-10
-1.22059e-08
1.80952e-10
-1.23773e-08
1.71428e-10
-1.2539e-08
1.6166e-10
-1.26906e-08
1.51663e-10
-1.28321e-08
1.41454e-10
-1.29631e-08
1.31046e-10
-1.30836e-08
1.20448e-10
-1.31933e-08
1.09671e-10
-1.3292e-08
9.8734e-11
-1.33796e-08
8.76578e-11
-1.34561e-08
7.64551e-11
-1.35212e-08
6.51367e-11
-1.3575e-08
5.37126e-11
-1.36171e-08
4.21952e-11
-1.36478e-08
3.06074e-11
-1.36667e-08
1.8971e-11
-1.3674e-08
7.29761e-12
-1.36696e-08
-4.40066e-12
-1.36535e-08
-1.61089e-11
-1.36257e-08
-2.78139e-11
-1.35862e-08
-3.94989e-11
-1.35351e-08
-5.11445e-11
-1.34723e-08
-6.27345e-11
-1.33981e-08
-7.42539e-11
-1.33124e-08
-8.56896e-11
-1.32153e-08
-9.7029e-11
-1.31071e-08
-1.08257e-10
-1.29877e-08
-1.19358e-10
-1.28574e-08
-1.30311e-10
-1.27163e-08
-1.4109e-10
-1.25647e-08
-1.5168e-10
-1.24026e-08
-1.62073e-10
-1.22303e-08
-1.72256e-10
-1.20481e-08
-1.82212e-10
-1.18562e-08
-1.91919e-10
-1.16548e-08
-2.01357e-10
-1.14443e-08
-2.10504e-10
-1.1225e-08
-2.19343e-10
-1.09971e-08
-2.27865e-10
-1.07611e-08
-2.36058e-10
-1.05171e-08
-2.43907e-10
-1.02658e-08
-2.51389e-10
-1.00073e-08
-2.58487e-10
-9.74209e-09
-2.65181e-10
-9.47064e-09
-2.71455e-10
-9.19335e-09
-2.7729e-10
-8.91068e-09
-2.8267e-10
-8.62309e-09
-2.87587e-10
-8.33106e-09
-2.92029e-10
-8.03508e-09
-2.95984e-10
-7.73565e-09
-2.99434e-10
-7.43329e-09
-3.02361e-10
-7.12854e-09
-3.04746e-10
-6.82197e-09
-3.06572e-10
-6.51414e-09
-3.0783e-10
-6.20563e-09
-3.08513e-10
-5.89701e-09
-3.08614e-10
-5.58889e-09
-3.08124e-10
-5.28186e-09
-3.07032e-10
-4.97653e-09
-3.05326e-10
-4.67354e-09
-3.02991e-10
-4.37353e-09
-3.00017e-10
-4.07713e-09
-2.96392e-10
-3.78502e-09
-2.92109e-10
-3.49787e-09
-2.8716e-10
-3.21633e-09
-2.81541e-10
-2.94107e-09
-2.75252e-10
-2.67277e-09
-2.683e-10
-2.41209e-09
-2.60682e-10
-2.15969e-09
-2.52397e-10
-1.91625e-09
-2.43443e-10
-1.68243e-09
-2.3382e-10
-1.4589e-09
-2.23533e-10
-1.2463e-09
-2.12593e-10
-1.04529e-09
-2.01015e-10
-8.56469e-10
-1.88819e-10
-6.80443e-10
-1.76028e-10
-5.17783e-10
-1.62662e-10
-3.69036e-10
-1.48748e-10
-2.34713e-10
-1.34322e-10
-1.15289e-10
-1.19424e-10
-1.11859e-11
-1.04104e-10
7.72399e-11
-8.84257e-11
1.49711e-10
-7.24703e-11
2.06055e-10
-5.63429e-11
2.4624e-10
-4.01835e-11
2.70411e-10
-2.41704e-11
2.7895e-10
-8.53747e-12
2.72544e-10
6.40723e-12
2.52285e-10
2.02599e-11
2.19815e-10
3.24701e-11
1.77544e-10
4.22723e-11
1.2895e-10
4.8595e-11
7.89837e-11
4.99653e-11
3.46221e-11
4.43615e-11
5.42042e-12
2.9202e-11
5.42032e-12
3.61322e-11
-4.41313e-11
1.10214e-10
-1.03302e-10
1.99386e-10
-1.28018e-10
2.90445e-10
-1.33068e-10
3.72144e-10
-1.21749e-10
4.3492e-10
-9.65561e-11
4.71089e-10
-6.03897e-11
4.74707e-10
-1.59846e-11
4.41443e-10
3.44418e-11
3.68202e-10
8.90667e-11
2.52895e-10
1.46457e-10
9.42622e-11
2.05507e-10
-1.08288e-10
2.65333e-10
-3.54852e-10
3.25236e-10
-6.45091e-10
3.84634e-10
-9.78337e-10
4.43085e-10
-1.35366e-09
5.00215e-10
-1.76987e-09
5.55731e-10
-2.22567e-09
6.09406e-10
-2.71956e-09
6.61053e-10
-3.24995e-09
7.10511e-10
-3.81518e-09
7.5769e-10
-4.41349e-09
8.02449e-10
-5.04308e-09
8.44763e-10
-5.70213e-09
8.84578e-10
-6.38876e-09
9.21858e-10
-7.10111e-09
9.5659e-10
-7.83729e-09
9.88776e-10
-8.59541e-09
1.01839e-09
-9.37361e-09
1.04547e-09
-1.017e-08
1.07002e-09
-1.09827e-08
1.09204e-09
-1.18099e-08
1.11159e-09
-1.26499e-08
1.12869e-09
-1.35006e-08
1.14335e-09
-1.43605e-08
1.15561e-09
-1.52278e-08
1.16552e-09
-1.61007e-08
1.17312e-09
-1.69775e-08
1.17843e-09
-1.78566e-08
1.1815e-09
-1.87363e-08
1.18238e-09
-1.96151e-08
1.1811e-09
-2.04914e-08
1.17772e-09
-2.13636e-08
1.17229e-09
-2.22304e-08
1.16486e-09
-2.30901e-08
1.15546e-09
-2.39414e-08
1.14415e-09
-2.47829e-08
1.13097e-09
-2.56133e-08
1.11597e-09
-2.64312e-08
1.09921e-09
-2.72353e-08
1.08073e-09
-2.80244e-08
1.06058e-09
-2.87974e-08
1.0388e-09
-2.95529e-08
1.01545e-09
-3.029e-08
9.90586e-10
-3.10075e-08
9.64258e-10
-3.17044e-08
9.36517e-10
-3.23795e-08
9.07411e-10
-3.30321e-08
8.76993e-10
-3.36611e-08
8.45314e-10
-3.42656e-08
8.12428e-10
-3.48448e-08
7.78383e-10
-3.53978e-08
7.43232e-10
-3.59239e-08
7.07023e-10
-3.64222e-08
6.69808e-10
-3.68922e-08
6.31642e-10
-3.73331e-08
5.92582e-10
-3.77444e-08
5.52684e-10
-3.81253e-08
5.12002e-10
-3.84755e-08
4.70585e-10
-3.87943e-08
4.28487e-10
-3.90813e-08
3.85767e-10
-3.93361e-08
3.42488e-10
-3.95584e-08
2.98706e-10
-3.97477e-08
2.54469e-10
-3.99038e-08
2.09832e-10
-4.00265e-08
1.64854e-10
-4.01155e-08
1.19598e-10
-4.01707e-08
7.41322e-11
-4.01919e-08
2.85162e-11
-4.01791e-08
-1.71962e-11
-4.01322e-08
-6.2947e-11
-4.00514e-08
-1.08678e-10
-3.99365e-08
-1.5433e-10
-3.97878e-08
-1.99836e-10
-3.96055e-08
-2.45131e-10
-3.93896e-08
-2.90153e-10
-3.91404e-08
-3.34841e-10
-3.88583e-08
-3.79139e-10
-3.85436e-08
-4.22991e-10
-3.81966e-08
-4.66329e-10
-3.78178e-08
-5.09081e-10
-3.74077e-08
-5.51179e-10
-3.69669e-08
-5.92552e-10
-3.64958e-08
-6.3314e-10
-3.59952e-08
-6.72886e-10
-3.54656e-08
-7.11728e-10
-3.4908e-08
-7.49594e-10
-3.43229e-08
-7.8641e-10
-3.37113e-08
-8.22104e-10
-3.3074e-08
-8.56611e-10
-3.2412e-08
-8.89873e-10
-3.17263e-08
-9.21831e-10
-3.10177e-08
-9.52424e-10
-3.02875e-08
-9.81585e-10
-2.95368e-08
-1.00924e-09
-2.87666e-08
-1.03533e-09
-2.79783e-08
-1.05978e-09
-2.71731e-08
-1.08253e-09
-2.63522e-08
-1.10351e-09
-2.55171e-08
-1.12269e-09
-2.46692e-08
-1.14e-09
-2.38098e-08
-1.15539e-09
-2.29404e-08
-1.16881e-09
-2.20626e-08
-1.18018e-09
-2.11779e-08
-1.18946e-09
-2.02879e-08
-1.19658e-09
-1.93942e-08
-1.2015e-09
-1.84985e-08
-1.20418e-09
-1.76026e-08
-1.20458e-09
-1.6708e-08
-1.20267e-09
-1.58166e-08
-1.19841e-09
-1.49302e-08
-1.19176e-09
-1.40505e-08
-1.18266e-09
-1.31794e-08
-1.1711e-09
-1.23188e-08
-1.15703e-09
-1.14705e-08
-1.14042e-09
-1.06364e-08
-1.12125e-09
-9.81842e-09
-1.09952e-09
-9.01844e-09
-1.07523e-09
-8.23838e-09
-1.04836e-09
-7.48014e-09
-1.01893e-09
-6.7456e-09
-9.86934e-10
-6.03665e-09
-9.52389e-10
-5.35517e-09
-9.15305e-10
-4.70299e-09
-8.75713e-10
-4.08192e-09
-8.33659e-10
-3.49374e-09
-7.89205e-10
-2.94013e-09
-7.42425e-10
-2.42276e-09
-6.93407e-10
-1.94316e-09
-6.42258e-10
-1.50281e-09
-5.89103e-10
-1.10304e-09
-5.34092e-10
-7.45055e-10
-4.77409e-10
-4.2988e-10
-4.19279e-10
-1.58321e-10
-3.59983e-10
6.90791e-11
-2.9987e-10
2.52111e-10
-2.39375e-10
3.90984e-10
-1.79054e-10
4.86426e-10
-1.19612e-10
5.39828e-10
-6.19383e-11
5.53413e-10
-7.17768e-12
5.30471e-10
4.32033e-11
4.75647e-10
8.72954e-11
3.95314e-10
1.22604e-10
2.98013e-10
1.45896e-10
1.94876e-10
1.53101e-10
9.98774e-11
1.39358e-10
2.93154e-11
9.97642e-11
3.47345e-11
5.38624e-11
-9.79951e-11
1.55968e-10
-2.05406e-10
2.73148e-10
-2.45198e-10
3.86347e-10
-2.46265e-10
4.80199e-10
-2.15601e-10
5.41676e-10
-1.58027e-10
5.60145e-10
-7.8865e-11
5.27247e-10
1.69257e-11
4.36589e-10
1.25092e-10
2.83523e-10
2.42124e-10
6.48263e-11
3.6516e-10
-2.21521e-10
4.91861e-10
-5.76616e-10
6.20429e-10
-1.00069e-09
7.49303e-10
-1.49335e-09
8.77296e-10
-2.05366e-09
1.00341e-09
-2.68029e-09
1.12684e-09
-3.37151e-09
1.24695e-09
-4.12532e-09
1.36321e-09
-4.93948e-09
1.47521e-09
-5.81156e-09
1.5826e-09
-6.73898e-09
1.68511e-09
-7.71906e-09
1.78253e-09
-8.74899e-09
1.8747e-09
-9.82592e-09
1.96151e-09
-1.09469e-08
2.04287e-09
-1.21091e-08
2.11875e-09
-1.33094e-08
2.18908e-09
-1.45449e-08
2.25388e-09
-1.58125e-08
2.31314e-09
-1.71094e-08
2.3669e-09
-1.84326e-08
2.41518e-09
-1.9779e-08
2.45803e-09
-2.11458e-08
2.4955e-09
-2.25301e-08
2.52766e-09
-2.39291e-08
2.55457e-09
-2.53398e-08
2.57631e-09
-2.67597e-08
2.59296e-09
-2.81858e-08
2.6046e-09
-2.96156e-08
2.61131e-09
-3.10465e-08
2.61319e-09
-3.24757e-08
2.61034e-09
-3.39008e-08
2.60286e-09
-3.53194e-08
2.59085e-09
-3.6729e-08
2.5744e-09
-3.81271e-08
2.55364e-09
-3.95116e-08
2.52864e-09
-4.08802e-08
2.49952e-09
-4.22306e-08
2.46638e-09
-4.35607e-08
2.42934e-09
-4.48685e-08
2.3885e-09
-4.61519e-08
2.34397e-09
-4.74089e-08
2.29585e-09
-4.86377e-08
2.24427e-09
-4.98365e-08
2.18933e-09
-5.10034e-08
2.13114e-09
-5.21367e-08
2.06983e-09
-5.32348e-08
2.0055e-09
-5.4296e-08
1.93826e-09
-5.5319e-08
1.86824e-09
-5.63021e-08
1.79553e-09
-5.72439e-08
1.72027e-09
-5.81433e-08
1.64256e-09
-5.89988e-08
1.56252e-09
-5.98092e-08
1.48025e-09
-6.05735e-08
1.39589e-09
-6.12904e-08
1.30956e-09
-6.19591e-08
1.22137e-09
-6.25786e-08
1.13144e-09
-6.31479e-08
1.03989e-09
-6.36662e-08
9.46844e-10
-6.41329e-08
8.52429e-10
-6.45472e-08
7.56772e-10
-6.49085e-08
6.59996e-10
-6.52162e-08
5.62221e-10
-6.547e-08
4.6357e-10
-6.56693e-08
3.64175e-10
-6.58138e-08
2.6417e-10
-6.59034e-08
1.63688e-10
-6.59378e-08
6.28654e-11
-6.59168e-08
-3.81701e-11
-6.58404e-08
-1.3929e-10
-6.57088e-08
-2.40359e-10
-6.55218e-08
-3.41244e-10
-6.52799e-08
-4.41807e-10
-6.49831e-08
-5.41908e-10
-6.46318e-08
-6.4141e-10
-6.42265e-08
-7.40176e-10
-6.37676e-08
-8.38068e-10
-6.32556e-08
-9.3495e-10
-6.26913e-08
-1.03068e-09
-6.20752e-08
-1.12512e-09
-6.14083e-08
-1.2181e-09
-6.06914e-08
-1.30949e-09
-5.99254e-08
-1.39914e-09
-5.91113e-08
-1.48693e-09
-5.82504e-08
-1.57269e-09
-5.73437e-08
-1.65628e-09
-5.63925e-08
-1.73755e-09
-5.53983e-08
-1.81636e-09
-5.43623e-08
-1.89254e-09
-5.32862e-08
-1.96598e-09
-5.21715e-08
-2.03652e-09
-5.10199e-08
-2.10403e-09
-4.98332e-08
-2.16837e-09
-4.8613e-08
-2.22938e-09
-4.73614e-08
-2.28693e-09
-4.60803e-08
-2.34087e-09
-4.47718e-08
-2.39106e-09
-4.34379e-08
-2.43737e-09
-4.20809e-08
-2.47968e-09
-4.07031e-08
-2.51787e-09
-3.93066e-08
-2.55182e-09
-3.7894e-08
-2.58139e-09
-3.64678e-08
-2.60647e-09
-3.50303e-08
-2.62693e-09
-3.35842e-08
-2.64266e-09
-3.21321e-08
-2.65355e-09
-3.06768e-08
-2.65951e-09
-2.92209e-08
-2.66046e-09
-2.77673e-08
-2.65629e-09
-2.63188e-08
-2.64694e-09
-2.48782e-08
-2.63232e-09
-2.34485e-08
-2.61235e-09
-2.20327e-08
-2.58695e-09
-2.06336e-08
-2.55607e-09
-1.92544e-08
-2.51965e-09
-1.7898e-08
-2.47766e-09
-1.65675e-08
-2.43007e-09
-1.52658e-08
-2.37686e-09
-1.39961e-08
-2.31805e-09
-1.27614e-08
-2.25365e-09
-1.15647e-08
-2.18367e-09
-1.04089e-08
-2.10814e-09
-9.29709e-09
-2.02714e-09
-8.23208e-09
-1.94072e-09
-7.21673e-09
-1.84901e-09
-6.2538e-09
-1.75214e-09
-5.34593e-09
-1.65029e-09
-4.49568e-09
-1.54366e-09
-3.70544e-09
-1.4325e-09
-2.97742e-09
-1.31712e-09
-2.31363e-09
-1.19788e-09
-1.71583e-09
-1.07521e-09
-1.18546e-09
-9.49645e-10
-7.23613e-10
-8.21834e-10
-3.30905e-10
-6.92576e-10
-7.42541e-12
-5.62853e-10
2.47408e-10
-4.33887e-10
4.34991e-10
-3.07195e-10
5.57722e-10
-1.8467e-10
6.19229e-10
-6.86837e-11
6.24649e-10
3.77842e-11
5.80962e-10
1.30982e-10
4.97365e-10
2.062e-10
3.85663e-10
2.57598e-10
2.60604e-10
2.78162e-10
1.40009e-10
2.59951e-10
4.46723e-11
1.95103e-10
7.9406e-11
5.83267e-11
-1.5632e-10
1.68087e-10
-3.15173e-10
2.89904e-10
-3.67018e-10
3.9988e-10
-3.56234e-10
4.79299e-10
-2.95026e-10
5.12719e-10
-1.91435e-10
4.8754e-10
-5.36893e-11
3.93692e-10
1.10771e-10
2.23327e-10
2.95451e-10
-2.93655e-11
4.94822e-10
-3.68566e-10
7.04346e-10
-7.96956e-10
9.20262e-10
-1.31602e-09
1.13949e-09
-1.92625e-09
1.35954e-09
-2.62727e-09
1.57831e-09
-3.41801e-09
1.79414e-09
-4.2968e-09
2.00564e-09
-5.26153e-09
2.21167e-09
-6.30965e-09
2.41133e-09
-7.43829e-09
2.60386e-09
-8.64436e-09
2.78866e-09
-9.92448e-09
2.96523e-09
-1.12751e-08
3.1332e-09
-1.26927e-08
3.29224e-09
-1.41734e-08
3.44218e-09
-1.57133e-08
3.58281e-09
-1.73086e-08
3.71402e-09
-1.89553e-08
3.83575e-09
-2.06493e-08
3.94796e-09
-2.23868e-08
4.05064e-09
-2.41638e-08
4.14382e-09
-2.59761e-08
4.22754e-09
-2.782e-08
4.30187e-09
-2.96914e-08
4.36688e-09
-3.15864e-08
4.42268e-09
-3.35012e-08
4.46938e-09
-3.5432e-08
4.50709e-09
-3.7375e-08
4.53595e-09
-3.93265e-08
4.5561e-09
-4.12829e-08
4.56769e-09
-4.32405e-08
4.57087e-09
-4.5196e-08
4.5658e-09
-4.71458e-08
4.55264e-09
-4.90865e-08
4.53157e-09
-5.10149e-08
4.50277e-09
-5.29276e-08
4.46642e-09
-5.48217e-08
4.42268e-09
-5.66939e-08
4.37174e-09
-5.85413e-08
4.31378e-09
-6.0361e-08
4.24899e-09
-6.215e-08
4.17756e-09
-6.39057e-08
4.09967e-09
-6.56254e-08
4.01552e-09
-6.73064e-08
3.9253e-09
-6.89463e-08
3.82921e-09
-7.05426e-08
3.72744e-09
-7.2093e-08
3.6202e-09
-7.35951e-08
3.50766e-09
-7.50469e-08
3.39004e-09
-7.64462e-08
3.26754e-09
-7.77911e-08
3.14036e-09
-7.90795e-08
3.00869e-09
-8.03096e-08
2.87273e-09
-8.14798e-08
2.7327e-09
-8.25884e-08
2.58879e-09
-8.36337e-08
2.44121e-09
-8.46143e-08
2.29017e-09
-8.55288e-08
2.13589e-09
-8.6376e-08
1.97857e-09
-8.71545e-08
1.81842e-09
-8.78633e-08
1.65565e-09
-8.85014e-08
1.49049e-09
-8.90677e-08
1.32316e-09
-8.95616e-08
1.15387e-09
-8.99822e-08
9.82831e-10
-9.03289e-08
8.10274e-10
-9.06012e-08
6.36423e-10
-9.07985e-08
4.61509e-10
-9.09206e-08
2.8576e-10
-9.09671e-08
1.09408e-10
-9.0938e-08
-6.73166e-11
-9.08331e-08
-2.44183e-10
-9.06525e-08
-4.20956e-10
-9.03963e-08
-5.97397e-10
-9.00649e-08
-7.73271e-10
-8.96584e-08
-9.48335e-10
-8.91775e-08
-1.12234e-09
-8.86226e-08
-1.29506e-09
-8.79944e-08
-1.46624e-09
-8.72938e-08
-1.63564e-09
-8.65214e-08
-1.803e-09
-8.56785e-08
-1.96809e-09
-8.47659e-08
-2.13063e-09
-8.3785e-08
-2.29039e-09
-8.27371e-08
-2.4471e-09
-8.16235e-08
-2.60052e-09
-8.04458e-08
-2.7504e-09
-7.92056e-08
-2.89647e-09
-7.79047e-08
-3.03848e-09
-7.65449e-08
-3.17617e-09
-7.51281e-08
-3.30929e-09
-7.36565e-08
-3.4376e-09
-7.21322e-08
-3.56084e-09
-7.05574e-08
-3.67876e-09
-6.89347e-08
-3.79113e-09
-6.72664e-08
-3.89768e-09
-6.55551e-08
-3.99818e-09
-6.38036e-08
-4.09238e-09
-6.20146e-08
-4.18004e-09
-6.01911e-08
-4.26094e-09
-5.83359e-08
-4.33485e-09
-5.64522e-08
-4.40155e-09
-5.45432e-08
-4.46083e-09
-5.26121e-08
-4.51249e-09
-5.06623e-08
-4.5563e-09
-4.86972e-08
-4.59206e-09
-4.67203e-08
-4.61958e-09
-4.47351e-08
-4.63868e-09
-4.27454e-08
-4.6492e-09
-4.07549e-08
-4.65097e-09
-3.87674e-08
-4.64385e-09
-3.67866e-08
-4.62768e-09
-3.48166e-08
-4.60234e-09
-3.28613e-08
-4.5677e-09
-3.09246e-08
-4.52365e-09
-2.90105e-08
-4.47009e-09
-2.71233e-08
-4.40694e-09
-2.52668e-08
-4.33415e-09
-2.34452e-08
-4.25167e-09
-2.16625e-08
-4.15949e-09
-1.9923e-08
-4.05763e-09
-1.82305e-08
-3.9461e-09
-1.65892e-08
-3.82497e-09
-1.5003e-08
-3.69431e-09
-1.34759e-08
-3.55424e-09
-1.20117e-08
-3.40492e-09
-1.06142e-08
-3.24656e-09
-9.28692e-09
-3.07941e-09
-8.03342e-09
-2.90379e-09
-6.85699e-09
-2.72009e-09
-5.76074e-09
-2.52876e-09
-4.7475e-09
-2.33036e-09
-3.81983e-09
-2.12556e-09
-2.97989e-09
-1.91515e-09
-2.22945e-09
-1.70009e-09
-1.56974e-09
-1.48154e-09
-1.00139e-09
-1.26092e-09
-5.24311e-10
-1.03993e-09
-1.37522e-10
-8.20676e-10
1.60991e-10
-6.05707e-10
3.74496e-10
-3.98173e-10
5.07754e-10
-2.01942e-10
5.67309e-10
-2.17711e-11
5.61801e-10
1.36491e-10
5.02303e-10
2.65697e-10
4.02671e-10
3.57228e-10
2.79876e-10
4.00955e-10
1.54321e-10
3.85506e-10
5.04507e-11
2.98974e-10
1.29857e-10
5.41945e-11
-2.10511e-10
1.55181e-10
-4.16156e-10
2.61704e-10
-4.73541e-10
3.46722e-10
-4.41252e-10
3.89183e-10
-3.37497e-10
3.71964e-10
-1.7422e-10
2.81075e-10
3.72027e-11
1.05297e-10
2.86566e-10
-1.64153e-10
5.64908e-10
-5.3401e-10
8.64667e-10
-1.00905e-09
1.17939e-09
-1.59255e-09
1.50375e-09
-2.28632e-09
1.83327e-09
-3.09106e-09
2.16427e-09
-4.00645e-09
2.49369e-09
-5.03131e-09
2.819e-09
-6.16378e-09
3.13811e-09
-7.40142e-09
3.44931e-09
-8.74124e-09
3.75116e-09
-1.01799e-08
4.0425e-09
-1.17136e-08
4.3224e-09
-1.33385e-08
4.59008e-09
-1.50502e-08
4.84491e-09
-1.68444e-08
5.08642e-09
-1.87164e-08
5.31422e-09
-2.06616e-08
5.52804e-09
-2.26753e-08
5.72767e-09
-2.47525e-08
5.91297e-09
-2.68884e-08
6.08385e-09
-2.9078e-08
6.2403e-09
-3.13165e-08
6.38232e-09
-3.35989e-08
6.50996e-09
-3.59204e-08
6.6233e-09
-3.8276e-08
6.72247e-09
-4.06609e-08
6.80758e-09
-4.30703e-08
6.87879e-09
-4.54995e-08
6.93627e-09
-4.79437e-08
6.98023e-09
-5.03985e-08
7.01085e-09
-5.28592e-08
7.02837e-09
-5.53213e-08
7.03301e-09
-5.77805e-08
7.02501e-09
-6.02325e-08
7.00462e-09
-6.2673e-08
6.97208e-09
-6.50979e-08
6.92767e-09
-6.75031e-08
6.87165e-09
-6.98847e-08
6.80429e-09
-7.22389e-08
6.72587e-09
-7.45618e-08
6.63666e-09
-7.68497e-08
6.53696e-09
-7.90992e-08
6.42703e-09
-8.13067e-08
6.30719e-09
-8.34689e-08
6.17771e-09
-8.55825e-08
6.03889e-09
-8.76443e-08
5.89104e-09
-8.96513e-08
5.73445e-09
-9.16006e-08
5.56943e-09
-9.34892e-08
5.39627e-09
-9.53144e-08
5.21528e-09
-9.70736e-08
5.02677e-09
-9.87643e-08
4.83105e-09
-1.00384e-07
4.62843e-09
-1.01931e-07
4.41922e-09
-1.03402e-07
4.20373e-09
-1.04795e-07
3.98228e-09
-1.06109e-07
3.75518e-09
-1.07342e-07
3.52276e-09
-1.08491e-07
3.28535e-09
-1.09556e-07
3.04326e-09
-1.10534e-07
2.79682e-09
-1.11425e-07
2.54637e-09
-1.12227e-07
2.29223e-09
-1.12938e-07
2.03475e-09
-1.13559e-07
1.77425e-09
-1.14087e-07
1.51108e-09
-1.14522e-07
1.24559e-09
-1.14864e-07
9.78102e-10
-1.15111e-07
7.08986e-10
-1.15264e-07
4.38591e-10
-1.15322e-07
1.67271e-10
-1.15285e-07
-1.04617e-10
-1.15152e-07
-3.76714e-10
-1.14925e-07
-6.48662e-10
-1.14602e-07
-9.20094e-10
-1.14184e-07
-1.19064e-09
-1.13673e-07
-1.45993e-09
-1.13068e-07
-1.72759e-09
-1.12369e-07
-1.99324e-09
-1.11579e-07
-2.25652e-09
-1.10698e-07
-2.51704e-09
-1.09726e-07
-2.77443e-09
-1.08666e-07
-3.02828e-09
-1.07519e-07
-3.27822e-09
-1.06285e-07
-3.52385e-09
-1.04967e-07
-3.7648e-09
-1.03567e-07
-4.00067e-09
-1.02087e-07
-4.23107e-09
-1.00527e-07
-4.4556e-09
-9.8892e-08
-4.67389e-09
-9.71826e-08
-4.88553e-09
-9.54018e-08
-5.09014e-09
-9.35521e-08
-5.28733e-09
-9.16362e-08
-5.47673e-09
-8.9657e-08
-5.65794e-09
-8.76175e-08
-5.8306e-09
-8.55209e-08
-5.99433e-09
-8.33703e-08
-6.14875e-09
-8.11692e-08
-6.29349e-09
-7.89211e-08
-6.4282e-09
-7.66295e-08
-6.55251e-09
-7.42982e-08
-6.6661e-09
-7.19312e-08
-6.76862e-09
-6.95323e-08
-6.85975e-09
-6.71056e-08
-6.93916e-09
-6.46553e-08
-7.00654e-09
-6.21858e-08
-7.06158e-09
-5.97014e-08
-7.104e-09
-5.72065e-08
-7.13353e-09
-5.47058e-08
-7.1499e-09
-5.22039e-08
-7.15287e-09
-4.97056e-08
-7.14222e-09
-4.72155e-08
-7.11773e-09
-4.47386e-08
-7.07921e-09
-4.22799e-08
-7.02647e-09
-3.98442e-08
-6.95936e-09
-3.74365e-08
-6.87775e-09
-3.50619e-08
-6.78152e-09
-3.27255e-08
-6.67059e-09
-3.04322e-08
-6.54493e-09
-2.81872e-08
-6.40452e-09
-2.59954e-08
-6.24938e-09
-2.3862e-08
-6.07957e-09
-2.17917e-08
-5.8952e-09
-1.97896e-08
-5.69642e-09
-1.78604e-08
-5.48342e-09
-1.60089e-08
-5.25648e-09
-1.42395e-08
-5.01594e-09
-1.25567e-08
-4.76221e-09
-1.09647e-08
-4.4958e-09
-9.46743e-09
-4.21734e-09
-8.06863e-09
-3.92756e-09
-6.77164e-09
-3.62735e-09
-5.57944e-09
-3.31775e-09
-4.49456e-09
-3.00003e-09
-3.51897e-09
-2.67568e-09
-2.65401e-09
-2.3465e-09
-1.90028e-09
-2.01465e-09
-1.2575e-09
-1.68271e-09
-7.24363e-10
-1.35382e-09
-2.98333e-10
-1.03174e-09
2.45349e-11
-7.21042e-10
2.49847e-10
-4.27254e-10
3.85133e-10
-1.57057e-10
4.40139e-10
8.14855e-11
4.27128e-10
2.78708e-10
3.61214e-10
4.23141e-10
2.6075e-10
5.0142e-10
1.47822e-10
4.98433e-10
4.92716e-11
3.97525e-10
1.79128e-10
4.49694e-11
-2.55481e-10
1.25183e-10
-4.9637e-10
2.00672e-10
-5.49037e-10
2.43087e-10
-4.83658e-10
2.30019e-10
-3.24426e-10
1.43283e-10
-8.74911e-11
-3.18823e-11
2.12369e-10
-3.07382e-10
5.62055e-10
-6.92674e-10
9.50197e-10
-1.19494e-09
1.36695e-09
-1.81951e-09
1.80395e-09
-2.56994e-09
2.25418e-09
-3.44833e-09
2.71167e-09
-4.45552e-09
3.17146e-09
-5.59121e-09
3.62939e-09
-6.85418e-09
4.08196e-09
-8.24238e-09
4.52631e-09
-9.75307e-09
4.96e-09
-1.13829e-08
5.38103e-09
-1.31282e-08
5.78776e-09
-1.49846e-08
6.1788e-09
-1.69476e-08
6.55306e-09
-1.90123e-08
6.90962e-09
-2.11737e-08
7.24778e-09
-2.34264e-08
7.56694e-09
-2.5765e-08
7.86668e-09
-2.8184e-08
8.14667e-09
-3.06777e-08
8.40669e-09
-3.32405e-08
8.64659e-09
-3.58665e-08
8.8663e-09
-3.855e-08
9.0658e-09
-4.12851e-08
9.24515e-09
-4.40663e-08
9.40443e-09
-4.68876e-08
9.54378e-09
-4.97434e-08
9.66337e-09
-5.2628e-08
9.7634e-09
-5.55358e-08
9.8441e-09
-5.84613e-08
9.90573e-09
-6.1399e-08
9.94856e-09
-6.43435e-08
9.97288e-09
-6.72895e-08
9.97902e-09
-7.02318e-08
9.96729e-09
-7.31653e-08
9.93805e-09
-7.60848e-08
9.89164e-09
-7.89856e-08
9.82842e-09
-8.18627e-08
9.74877e-09
-8.47115e-08
9.65306e-09
-8.75273e-08
9.54168e-09
-9.03056e-08
9.41502e-09
-9.30422e-08
9.27349e-09
-9.57326e-08
9.11748e-09
-9.83728e-08
8.94739e-09
-1.00959e-07
8.76365e-09
-1.03487e-07
8.56667e-09
-1.05952e-07
8.35687e-09
-1.08353e-07
8.13468e-09
-1.10684e-07
7.90051e-09
-1.12942e-07
7.65481e-09
-1.15125e-07
7.398e-09
-1.17229e-07
7.13051e-09
-1.1925e-07
6.85279e-09
-1.21187e-07
6.56528e-09
-1.23036e-07
6.26842e-09
-1.24795e-07
5.96264e-09
-1.26462e-07
5.64841e-09
-1.28033e-07
5.32618e-09
-1.29506e-07
4.9964e-09
-1.3088e-07
4.65952e-09
-1.32153e-07
4.31602e-09
-1.33323e-07
3.96636e-09
-1.34387e-07
3.611e-09
-1.35345e-07
3.25042e-09
-1.36196e-07
2.88509e-09
-1.36937e-07
2.5155e-09
-1.37568e-07
2.14212e-09
-1.38088e-07
1.76545e-09
-1.38496e-07
1.38597e-09
-1.38791e-07
1.00418e-09
-1.38973e-07
6.20591e-10
-1.39041e-07
2.35695e-10
-1.38996e-07
-1.49999e-10
-1.38837e-07
-5.35979e-10
-1.38564e-07
-9.2173e-10
-1.38177e-07
-1.30674e-09
-1.37677e-07
-1.69048e-09
-1.37065e-07
-2.07242e-09
-1.3634e-07
-2.45204e-09
-1.35505e-07
-2.8288e-09
-1.34559e-07
-3.20217e-09
-1.33504e-07
-3.57161e-09
-1.32342e-07
-3.93658e-09
-1.31074e-07
-4.29652e-09
-1.29701e-07
-4.6509e-09
-1.28226e-07
-4.99916e-09
-1.2665e-07
-5.34076e-09
-1.24976e-07
-5.67513e-09
-1.23205e-07
-6.00174e-09
-1.21341e-07
-6.32002e-09
-1.19385e-07
-6.62943e-09
-1.17341e-07
-6.9294e-09
-1.15212e-07
-7.2194e-09
-1.13e-07
-7.49889e-09
-1.1071e-07
-7.7673e-09
-1.08344e-07
-8.02412e-09
-1.05905e-07
-8.2688e-09
-1.03399e-07
-8.50083e-09
-1.00828e-07
-8.71966e-09
-9.81966e-08
-8.92479e-09
-9.55091e-08
-9.1157e-09
-9.27697e-08
-9.29191e-09
-8.99829e-08
-9.45293e-09
-8.71532e-08
-9.59829e-09
-8.42854e-08
-9.72752e-09
-8.13844e-08
-9.84018e-09
-7.84551e-08
-9.93582e-09
-7.55027e-08
-1.0014e-08
-7.25323e-08
-1.00744e-08
-6.95493e-08
-1.01166e-08
-6.6559e-08
-1.01401e-08
-6.35671e-08
-1.01448e-08
-6.05791e-08
-1.01302e-08
-5.76007e-08
-1.00961e-08
-5.46376e-08
-1.00423e-08
-5.16958e-08
-9.96836e-09
-4.87809e-08
-9.87421e-09
-4.5899e-08
-9.75966e-09
-4.3056e-08
-9.62456e-09
-4.02577e-08
-9.46881e-09
-3.75103e-08
-9.29238e-09
-3.48196e-08
-9.09525e-09
-3.21914e-08
-8.87748e-09
-2.96318e-08
-8.63919e-09
-2.71465e-08
-8.38053e-09
-2.47412e-08
-8.10174e-09
-2.24215e-08
-7.80315e-09
-2.01928e-08
-7.48515e-09
-1.80605e-08
-7.14827e-09
-1.60296e-08
-6.79312e-09
-1.41049e-08
-6.42046e-09
-1.22911e-08
-6.03119e-09
-1.05922e-08
-5.62639e-09
-9.01222e-09
-5.20736e-09
-7.55437e-09
-4.77559e-09
-6.2215e-09
-4.33291e-09
-5.01574e-09
-3.88143e-09
-3.93854e-09
-3.4237e-09
-2.99046e-09
-2.96273e-09
-2.17107e-09
-2.5021e-09
-1.47881e-09
-2.04608e-09
-9.10774e-10
-1.59978e-09
-4.62535e-10
-1.16928e-09
-1.27924e-10
-7.61866e-10
1.01218e-10
-3.86202e-10
2.35304e-10
-5.26023e-11
2.87278e-10
2.26734e-10
2.72938e-10
4.37481e-10
2.11363e-10
5.62997e-10
1.25495e-10
5.84301e-10
4.32061e-11
4.79816e-10
2.22334e-10
3.25788e-11
-2.88061e-10
8.36001e-11
-5.47386e-10
1.16126e-10
-5.81571e-10
1.01861e-10
-4.6939e-10
1.80977e-11
-2.40658e-10
-1.53694e-10
8.42967e-11
-4.28637e-10
4.87312e-10
-8.18951e-10
9.52376e-10
-1.33435e-09
1.46559e-09
-1.9823e-09
2.0149e-09
-2.76836e-09
2.59001e-09
-3.69627e-09
3.18209e-09
-4.7683e-09
3.78369e-09
-5.9853e-09
4.38846e-09
-7.347e-09
4.99108e-09
-8.85207e-09
5.58704e-09
-1.04983e-08
6.17253e-09
-1.22827e-08
6.74442e-09
-1.42017e-08
7.30001e-09
-1.62511e-08
7.83711e-09
-1.84261e-08
8.35387e-09
-2.07218e-08
8.84877e-09
-2.31328e-08
9.32058e-09
-2.56533e-08
9.76827e-09
-2.82774e-08
1.01911e-08
-3.09991e-08
1.05883e-08
-3.3812e-08
1.09596e-08
-3.67098e-08
1.13045e-08
-3.96861e-08
1.16229e-08
-4.27343e-08
1.19145e-08
-4.58479e-08
1.21794e-08
-4.90203e-08
1.24175e-08
-5.22449e-08
1.2629e-08
-5.55152e-08
1.28141e-08
-5.88247e-08
1.29728e-08
-6.21668e-08
1.31056e-08
-6.55353e-08
1.32125e-08
-6.89237e-08
1.32941e-08
-7.23257e-08
1.33506e-08
-7.57352e-08
1.33824e-08
-7.91461e-08
1.33899e-08
-8.25524e-08
1.33736e-08
-8.59482e-08
1.33338e-08
-8.93277e-08
1.32711e-08
-9.26852e-08
1.31859e-08
-9.60151e-08
1.30787e-08
-9.93121e-08
1.29501e-08
-1.02571e-07
1.28004e-08
-1.05786e-07
1.26303e-08
-1.08953e-07
1.24402e-08
-1.12066e-07
1.22308e-08
-1.15121e-07
1.20025e-08
-1.18114e-07
1.17559e-08
-1.21038e-07
1.14915e-08
-1.23891e-07
1.121e-08
-1.26669e-07
1.09118e-08
-1.29366e-07
1.05976e-08
-1.31979e-07
1.02679e-08
-1.34504e-07
9.92327e-09
-1.36938e-07
9.56435e-09
-1.39277e-07
9.19171e-09
-1.41517e-07
8.80592e-09
-1.43657e-07
8.40759e-09
-1.45691e-07
7.99731e-09
-1.47619e-07
7.57568e-09
-1.49436e-07
7.14332e-09
-1.5114e-07
6.70084e-09
-1.52729e-07
6.24885e-09
-1.54201e-07
5.78798e-09
-1.55554e-07
5.31883e-09
-1.56785e-07
4.84206e-09
-1.57893e-07
4.35829e-09
-1.58876e-07
3.86817e-09
-1.59733e-07
3.37232e-09
-1.60462e-07
2.87141e-09
-1.61063e-07
2.3661e-09
-1.61534e-07
1.85703e-09
-1.61874e-07
1.34488e-09
-1.62084e-07
8.30313e-10
-1.62162e-07
3.14013e-10
-1.62109e-07
-2.03341e-10
-1.61924e-07
-7.21066e-10
-1.61607e-07
-1.23847e-09
-1.61159e-07
-1.75486e-09
-1.6058e-07
-2.26952e-09
-1.59871e-07
-2.78177e-09
-1.59032e-07
-3.29087e-09
-1.58065e-07
-3.79612e-09
-1.5697e-07
-4.29681e-09
-1.55749e-07
-4.7922e-09
-1.54404e-07
-5.28157e-09
-1.52937e-07
-5.76419e-09
-1.51348e-07
-6.23932e-09
-1.49641e-07
-6.70623e-09
-1.47818e-07
-7.16419e-09
-1.45881e-07
-7.61245e-09
-1.43832e-07
-8.05027e-09
-1.41675e-07
-8.47691e-09
-1.39413e-07
-8.89165e-09
-1.37049e-07
-9.29374e-09
-1.34586e-07
-9.68244e-09
-1.32027e-07
-1.0057e-08
-1.29378e-07
-1.04168e-08
-1.26641e-07
-1.0761e-08
-1.23821e-07
-1.1089e-08
-1.20922e-07
-1.13999e-08
-1.17948e-07
-1.16933e-08
-1.14905e-07
-1.19682e-08
-1.11796e-07
-1.22242e-08
-1.08628e-07
-1.24604e-08
-1.05404e-07
-1.26763e-08
-1.02131e-07
-1.28713e-08
-9.88141e-08
-1.30447e-08
-9.54584e-08
-1.31959e-08
-9.20698e-08
-1.33244e-08
-8.86543e-08
-1.34296e-08
-8.52177e-08
-1.35109e-08
-8.17663e-08
-1.3568e-08
-7.83063e-08
-1.36002e-08
-7.48439e-08
-1.36072e-08
-7.13857e-08
-1.35885e-08
-6.79381e-08
-1.35438e-08
-6.45077e-08
-1.34727e-08
-6.11012e-08
-1.33749e-08
-5.77252e-08
-1.32501e-08
-5.43866e-08
-1.30983e-08
-5.10922e-08
-1.2919e-08
-4.78486e-08
-1.27124e-08
-4.46626e-08
-1.24783e-08
-4.15411e-08
-1.22167e-08
-3.84908e-08
-1.19278e-08
-3.55182e-08
-1.16117e-08
-3.26301e-08
-1.12687e-08
-2.98327e-08
-1.08991e-08
-2.71325e-08
-1.05033e-08
-2.45356e-08
-1.00821e-08
-2.20479e-08
-9.63596e-09
-1.96752e-08
-9.16589e-09
-1.74227e-08
-8.67292e-09
-1.52956e-08
-8.15827e-09
-1.32986e-08
-7.62345e-09
-1.14357e-08
-7.07017e-09
-9.71081e-09
-6.50052e-09
-8.12683e-09
-5.91689e-09
-6.68611e-09
-5.32215e-09
-5.39018e-09
-4.71963e-09
-4.2396e-09
-4.11331e-09
-3.23388e-09
-3.50782e-09
-2.37128e-09
-2.90868e-09
-1.64867e-09
-2.32239e-09
-1.06135e-09
-1.7566e-09
-6.02838e-10
-1.22038e-09
-2.64638e-10
-7.24402e-10
-3.60333e-11
-2.81207e-10
9.61932e-11
9.45073e-11
1.48062e-10
3.85611e-10
1.38815e-10
5.72245e-10
9.14714e-11
6.31644e-10
3.37507e-11
5.37539e-10
2.56084e-10
1.83317e-11
-3.06388e-10
3.43241e-11
-5.63377e-10
1.49036e-11
-5.6214e-10
-6.69723e-11
-3.87523e-10
-2.33529e-10
-7.41054e-11
-5.03105e-10
3.53875e-10
-8.90677e-10
8.74881e-10
-1.40843e-09
1.47013e-09
-2.06604e-09
2.12321e-09
-2.87106e-09
2.81992e-09
-3.82899e-09
3.54795e-09
-4.94368e-09
4.29678e-09
-6.21735e-09
5.05736e-09
-7.65086e-09
5.82197e-09
-9.24385e-09
6.58408e-09
-1.09949e-08
7.33806e-09
-1.29015e-08
8.07921e-09
-1.49607e-08
8.80353e-09
-1.71683e-08
9.50765e-09
-1.95199e-08
1.01887e-08
-2.20105e-08
1.08444e-08
-2.46344e-08
1.14727e-08
-2.73859e-08
1.2072e-08
-3.02586e-08
1.2641e-08
-3.32461e-08
1.31786e-08
-3.63417e-08
1.3684e-08
-3.95386e-08
1.41564e-08
-4.28295e-08
1.45955e-08
-4.62075e-08
1.50009e-08
-4.96653e-08
1.53723e-08
-5.31957e-08
1.57097e-08
-5.67912e-08
1.60131e-08
-6.04447e-08
1.62825e-08
-6.41489e-08
1.65182e-08
-6.78964e-08
1.67203e-08
-7.168e-08
1.68892e-08
-7.54927e-08
1.70252e-08
-7.93272e-08
1.71286e-08
-8.31765e-08
1.72e-08
-8.70338e-08
1.72397e-08
-9.08922e-08
1.72483e-08
-9.4745e-08
1.72263e-08
-9.85855e-08
1.71743e-08
-1.02407e-07
1.70928e-08
-1.06204e-07
1.69825e-08
-1.09969e-07
1.6844e-08
-1.13697e-07
1.66778e-08
-1.17381e-07
1.64847e-08