/*--------------------------------*- C++ -*----------------------------------*\
  =========                 |
  \\      /  F ield         | OpenFOAM: The Open Source CFD Toolbox
   \\    /   O peration     | Website:  https://openfoam.org
    \\  /    A nd           | Version:  7
     \\/     M anipulation  |
\*---------------------------------------------------------------------------*/
FoamFile
{
    version     2.0;
    format      ascii;
    class       volVectorField;
    location    "0.1125";
    object      U;
}
// * * * * * * * * * * * * * * * * * * * * * * * * * * * * * * * * * * * * * //

dimensions      [0 1 -1 0 0 0 0];

internalField   nonuniform List<vector> 
25600
(
(4.53719e-07 -2.93382e-07 0)
(3.22556e-06 -1.4767e-06 0)
(8.86131e-06 -2.08472e-06 0)
(1.55394e-05 -2.37639e-06 0)
(2.22547e-05 -2.37275e-06 0)
(2.82902e-05 -2.11225e-06 0)
(3.30323e-05 -1.67902e-06 0)
(3.60356e-05 -1.11504e-06 0)
(3.69805e-05 -4.72966e-07 0)
(3.56602e-05 2.22608e-07 0)
(3.19259e-05 9.50039e-07 0)
(2.56974e-05 1.69104e-06 0)
(1.69314e-05 2.44493e-06 0)
(5.61097e-06 3.19858e-06 0)
(-8.24264e-06 3.94352e-06 0)
(-2.45906e-05 4.67623e-06 0)
(-4.3385e-05 5.38558e-06 0)
(-6.45556e-05 6.07333e-06 0)
(-8.80219e-05 6.73965e-06 0)
(-0.000113707 7.37653e-06 0)
(-0.000141512 7.98596e-06 0)
(-0.00017134 8.56826e-06 0)
(-0.000203095 9.11208e-06 0)
(-0.000236664 9.62358e-06 0)
(-0.000271944 1.01102e-05 0)
(-0.000308832 1.05597e-05 0)
(-0.000347216 1.0978e-05 0)
(-0.000386987 1.13677e-05 0)
(-0.000428042 1.17217e-05 0)
(-0.000470274 1.20433e-05 0)
(-0.000513568 1.23366e-05 0)
(-0.000557829 1.25995e-05 0)
(-0.000602951 1.28308e-05 0)
(-0.000648827 1.30335e-05 0)
(-0.000695357 1.32086e-05 0)
(-0.000742446 1.33546e-05 0)
(-0.00078999 1.34742e-05 0)
(-0.000837894 1.35685e-05 0)
(-0.000886066 1.36336e-05 0)
(-0.00093441 1.36679e-05 0)
(-0.000982834 1.36746e-05 0)
(-0.00103125 1.36572e-05 0)
(-0.00107957 1.36172e-05 0)
(-0.00112771 1.35558e-05 0)
(-0.00117558 1.34731e-05 0)
(-0.00122311 1.33668e-05 0)
(-0.00127022 1.32358e-05 0)
(-0.00131682 1.30821e-05 0)
(-0.00136284 1.29073e-05 0)
(-0.00140822 1.27131e-05 0)
(-0.00145287 1.25002e-05 0)
(-0.00149672 1.22681e-05 0)
(-0.00153972 1.20165e-05 0)
(-0.0015818 1.17459e-05 0)
(-0.00162288 1.14574e-05 0)
(-0.00166292 1.11528e-05 0)
(-0.00170185 1.08325e-05 0)
(-0.00173961 1.04964e-05 0)
(-0.00177616 1.01448e-05 0)
(-0.00181143 9.77877e-06 0)
(-0.00184538 9.39897e-06 0)
(-0.00187797 9.0056e-06 0)
(-0.00190913 8.59939e-06 0)
(-0.00193883 8.18083e-06 0)
(-0.00196703 7.7502e-06 0)
(-0.00199369 7.30849e-06 0)
(-0.00201877 6.8564e-06 0)
(-0.00204222 6.39444e-06 0)
(-0.00206403 5.92365e-06 0)
(-0.00208416 5.44449e-06 0)
(-0.00210257 4.95674e-06 0)
(-0.00211925 4.46134e-06 0)
(-0.00213417 3.95992e-06 0)
(-0.0021473 3.45314e-06 0)
(-0.00215863 2.94122e-06 0)
(-0.00216815 2.4243e-06 0)
(-0.00217582 1.9026e-06 0)
(-0.00218165 1.3775e-06 0)
(-0.00218562 8.50817e-07 0)
(-0.00218772 3.23103e-07 0)
(-0.00218795 -2.05692e-07 0)
(-0.00218631 -7.35111e-07 0)
(-0.0021828 -1.26446e-06 0)
(-0.00217741 -1.79292e-06 0)
(-0.00217016 -2.31949e-06 0)
(-0.00216104 -2.84329e-06 0)
(-0.00215008 -3.36372e-06 0)
(-0.00213728 -3.88046e-06 0)
(-0.00212266 -4.39306e-06 0)
(-0.00210623 -4.90077e-06 0)
(-0.00208802 -5.40297e-06 0)
(-0.00206804 -5.89875e-06 0)
(-0.00204632 -6.38665e-06 0)
(-0.00202289 -6.86569e-06 0)
(-0.00199778 -7.33574e-06 0)
(-0.00197103 -7.79659e-06 0)
(-0.00194266 -8.2475e-06 0)
(-0.00191272 -8.68755e-06 0)
(-0.00188125 -9.11549e-06 0)
(-0.00184829 -9.52986e-06 0)
(-0.00181389 -9.92981e-06 0)
(-0.0017781 -1.03154e-05 0)
(-0.00174097 -1.06866e-05 0)
(-0.00170256 -1.10428e-05 0)
(-0.00166292 -1.13826e-05 0)
(-0.00162211 -1.17049e-05 0)
(-0.0015802 -1.20087e-05 0)
(-0.00153726 -1.22933e-05 0)
(-0.00149334 -1.25577e-05 0)
(-0.00144852 -1.28013e-05 0)
(-0.00140288 -1.30239e-05 0)
(-0.0013565 -1.32252e-05 0)
(-0.00130944 -1.34046e-05 0)
(-0.00126178 -1.35614e-05 0)
(-0.00121362 -1.36945e-05 0)
(-0.00116503 -1.38029e-05 0)
(-0.0011161 -1.38854e-05 0)
(-0.00106693 -1.39417e-05 0)
(-0.0010176 -1.39718e-05 0)
(-0.000968203 -1.39758e-05 0)
(-0.000918841 -1.39532e-05 0)
(-0.000869605 -1.39036e-05 0)
(-0.000820592 -1.38261e-05 0)
(-0.000771902 -1.37199e-05 0)
(-0.000723636 -1.35842e-05 0)
(-0.000675898 -1.34186e-05 0)
(-0.000628792 -1.32227e-05 0)
(-0.000582425 -1.29958e-05 0)
(-0.000536904 -1.27376e-05 0)
(-0.000492334 -1.24481e-05 0)
(-0.000448824 -1.21277e-05 0)
(-0.000406479 -1.17766e-05 0)
(-0.000365407 -1.13945e-05 0)
(-0.000325714 -1.0981e-05 0)
(-0.000287508 -1.05358e-05 0)
(-0.000250895 -1.00587e-05 0)
(-0.00021598 -9.55014e-06 0)
(-0.000182867 -9.01069e-06 0)
(-0.000151657 -8.44132e-06 0)
(-0.000122448 -7.84306e-06 0)
(-9.5332e-05 -7.21663e-06 0)
(-7.03999e-05 -6.56274e-06 0)
(-4.77361e-05 -5.88252e-06 0)
(-2.742e-05 -5.17702e-06 0)
(-9.52419e-06 -4.44781e-06 0)
(5.88868e-06 -3.69747e-06 0)
(1.8767e-05 -2.92876e-06 0)
(2.90737e-05 -2.1459e-06 0)
(3.67916e-05 -1.35487e-06 0)
(4.19277e-05 -5.63037e-07 0)
(4.45216e-05 2.18313e-07 0)
(4.46562e-05 9.74052e-07 0)
(4.2469e-05 1.68362e-06 0)
(3.81732e-05 2.31653e-06 0)
(3.20861e-05 2.82797e-06 0)
(2.46695e-05 3.149e-06 0)
(1.65812e-05 3.17639e-06 0)
(8.75958e-06 2.75575e-06 0)
(2.66089e-06 1.69448e-06 0)
(1.37174e-07 1.33508e-07 0)
(2.5475e-06 -3.52225e-06 0)
(1.08537e-05 -9.30686e-06 0)
(2.43996e-05 -1.19013e-05 0)
(3.93766e-05 -1.26852e-05 0)
(5.35799e-05 -1.19631e-05 0)
(6.54612e-05 -9.96523e-06 0)
(7.36414e-05 -6.96143e-06 0)
(7.70251e-05 -3.24469e-06 0)
(7.47918e-05 1.00181e-06 0)
(6.6376e-05 5.59892e-06 0)
(5.13607e-05 1.04168e-05 0)
(2.94832e-05 1.53773e-05 0)
(6.01347e-07 2.03851e-05 0)
(-3.5332e-05 2.54013e-05 0)
(-7.82907e-05 3.03658e-05 0)
(-0.000128204 3.52442e-05 0)
(-0.00018493 4.00045e-05 0)
(-0.000248297 4.46287e-05 0)
(-0.000318114 4.90868e-05 0)
(-0.000394149 5.33786e-05 0)
(-0.000476154 5.74841e-05 0)
(-0.000563873 6.13921e-05 0)
(-0.000657025 6.50972e-05 0)
(-0.000755324 6.85972e-05 0)
(-0.000858491 7.18815e-05 0)
(-0.00096622 7.49603e-05 0)
(-0.00107821 7.78246e-05 0)
(-0.00119417 8.04777e-05 0)
(-0.00131379 8.2915e-05 0)
(-0.00143676 8.51419e-05 0)
(-0.0015628 8.71601e-05 0)
(-0.00169161 8.89696e-05 0)
(-0.00182288 9.05751e-05 0)
(-0.00195632 9.1979e-05 0)
(-0.00209164 9.3182e-05 0)
(-0.00222857 9.41873e-05 0)
(-0.00236681 9.50009e-05 0)
(-0.00250609 9.56268e-05 0)
(-0.00264613 9.60648e-05 0)
(-0.00278667 9.63178e-05 0)
(-0.00292744 9.63899e-05 0)
(-0.00306818 9.62846e-05 0)
(-0.00320865 9.60074e-05 0)
(-0.00334859 9.5564e-05 0)
(-0.00348777 9.49585e-05 0)
(-0.00362594 9.41942e-05 0)
(-0.00376288 9.32727e-05 0)
(-0.00389836 9.21978e-05 0)
(-0.00403216 9.09742e-05 0)
(-0.00416407 8.96065e-05 0)
(-0.00429389 8.80997e-05 0)
(-0.0044214 8.6457e-05 0)
(-0.00454641 8.46812e-05 0)
(-0.00466874 8.27771e-05 0)
(-0.00478819 8.07497e-05 0)
(-0.0049046 7.86032e-05 0)
(-0.00501779 7.63417e-05 0)
(-0.00512759 7.39692e-05 0)
(-0.00523385 7.149e-05 0)
(-0.00533641 6.89081e-05 0)
(-0.00543512 6.6228e-05 0)
(-0.00552985 6.34537e-05 0)
(-0.00562046 6.05889e-05 0)
(-0.00570682 5.76378e-05 0)
(-0.0057888 5.46046e-05 0)
(-0.0058663 5.14934e-05 0)
(-0.00593919 4.83094e-05 0)
(-0.00600739 4.50575e-05 0)
(-0.00607079 4.17416e-05 0)
(-0.0061293 3.83657e-05 0)
(-0.00618283 3.49338e-05 0)
(-0.00623132 3.14509e-05 0)
(-0.00627468 2.79227e-05 0)
(-0.00631286 2.4354e-05 0)
(-0.0063458 2.07483e-05 0)
(-0.00637345 1.71094e-05 0)
(-0.00639576 1.3442e-05 0)
(-0.0064127 9.75185e-06 0)
(-0.00642424 6.04508e-06 0)
(-0.00643035 2.32658e-06 0)
(-0.00643103 -1.39948e-06 0)
(-0.00642626 -5.12883e-06 0)
(-0.00641604 -8.85703e-06 0)
(-0.00640038 -1.25788e-05 0)
(-0.00637929 -1.62885e-05 0)
(-0.0063528 -1.99808e-05 0)
(-0.00632093 -2.36508e-05 0)
(-0.00628371 -2.72938e-05 0)
(-0.0062412 -3.09053e-05 0)
(-0.00619344 -3.44812e-05 0)
(-0.00614048 -3.80159e-05 0)
(-0.0060824 -4.15033e-05 0)
(-0.00601928 -4.49368e-05 0)
(-0.00595118 -4.83109e-05 0)
(-0.0058782 -5.16212e-05 0)
(-0.00580044 -5.48638e-05 0)
(-0.005718 -5.80333e-05 0)
(-0.00563099 -6.11237e-05 0)
(-0.00553954 -6.41286e-05 0)
(-0.00544377 -6.70414e-05 0)
(-0.00534383 -6.98568e-05 0)
(-0.00523985 -7.25708e-05 0)
(-0.00513199 -7.51793e-05 0)
(-0.0050204 -7.76774e-05 0)
(-0.00490526 -8.00591e-05 0)
(-0.00478674 -8.23183e-05 0)
(-0.00466502 -8.4449e-05 0)
(-0.00454029 -8.64457e-05 0)
(-0.00441276 -8.8303e-05 0)
(-0.00428262 -9.00162e-05 0)
(-0.00415009 -9.15816e-05 0)
(-0.00401539 -9.29953e-05 0)
(-0.00387874 -9.42533e-05 0)
(-0.00374038 -9.53503e-05 0)
(-0.00360054 -9.62806e-05 0)
(-0.00345948 -9.70388e-05 0)
(-0.00331744 -9.76201e-05 0)
(-0.00317468 -9.80207e-05 0)
(-0.00303146 -9.82381e-05 0)
(-0.00288806 -9.82699e-05 0)
(-0.00274475 -9.81133e-05 0)
(-0.00260181 -9.77646e-05 0)
(-0.00245951 -9.72201e-05 0)
(-0.00231815 -9.64758e-05 0)
(-0.00217802 -9.55282e-05 0)
(-0.00203941 -9.43741e-05 0)
(-0.00190262 -9.30111e-05 0)
(-0.00176795 -9.14373e-05 0)
(-0.00163571 -8.96516e-05 0)
(-0.0015062 -8.76539e-05 0)
(-0.00137972 -8.54443e-05 0)
(-0.00125658 -8.30232e-05 0)
(-0.00113708 -8.03903e-05 0)
(-0.00102153 -7.75457e-05 0)
(-0.000910225 -7.44898e-05 0)
(-0.000803461 -7.12244e-05 0)
(-0.000701531 -6.77528e-05 0)
(-0.000604722 -6.40801e-05 0)
(-0.000513313 -6.02123e-05 0)
(-0.000427572 -5.61561e-05 0)
(-0.000347756 -5.19194e-05 0)
(-0.000274106 -4.75114e-05 0)
(-0.000206846 -4.29432e-05 0)
(-0.000146183 -3.82286e-05 0)
(-9.22954e-05 -3.3384e-05 0)
(-4.53317e-05 -2.8431e-05 0)
(-5.40209e-06 -2.33968e-05 0)
(2.74305e-05 -1.83156e-05 0)
(5.3163e-05 -1.32325e-05 0)
(7.18657e-05 -8.20537e-06 0)
(8.37018e-05 -3.30864e-06 0)
(8.89529e-05 1.35967e-06 0)
(8.80498e-05 5.6717e-06 0)
(8.16154e-05 9.45601e-06 0)
(7.05187e-05 1.24793e-05 0)
(5.59401e-05 1.44263e-05 0)
(3.94214e-05 1.48793e-05 0)
(2.29215e-05 1.33076e-05 0)
(9.18274e-06 9.15504e-06 0)
(1.71251e-06 2.66427e-06 0)
(3.84743e-06 -1.10155e-05 0)
(1.57189e-05 -2.39869e-05 0)
(3.40162e-05 -2.91258e-05 0)
(5.32563e-05 -2.98687e-05 0)
(7.03625e-05 -2.69331e-05 0)
(8.32506e-05 -2.08669e-05 0)
(9.00216e-05 -1.23116e-05 0)
(8.91524e-05 -1.84931e-06 0)
(7.94882e-05 1.00039e-05 0)
(6.01386e-05 2.2847e-05 0)
(3.05076e-05 3.63486e-05 0)
(-9.8356e-06 5.02411e-05 0)
(-6.11277e-05 6.43298e-05 0)
(-0.000123459 7.84425e-05 0)
(-0.000196826 9.24427e-05 0)
(-0.000281108 0.000106225 0)
(-0.000376122 0.00011971 0)
(-0.000481627 0.00013281 0)
(-0.00059731 0.000145486 0)
(-0.000722835 0.000157689 0)
(-0.000857838 0.000169377 0)
(-0.0010019 0.000180532 0)
(-0.00115461 0.000191123 0)
(-0.00131552 0.000201134 0)
(-0.00148419 0.000210559 0)
(-0.00166013 0.000219388 0)
(-0.00184291 0.000227615 0)
(-0.00203202 0.000235239 0)
(-0.002227 0.000242263 0)
(-0.00242738 0.00024868 0)
(-0.00263266 0.000254499 0)
(-0.00284237 0.000259727 0)
(-0.00305606 0.000264363 0)
(-0.00327323 0.000268418 0)
(-0.00349343 0.000271897 0)
(-0.00371621 0.000274806 0)
(-0.0039411 0.000277156 0)
(-0.00416765 0.000278957 0)
(-0.00439544 0.000280218 0)
(-0.00462403 0.000280947 0)
(-0.00485298 0.000281156 0)
(-0.00508189 0.000280854 0)
(-0.00531034 0.00028005 0)
(-0.00553793 0.000278757 0)
(-0.00576427 0.000276988 0)
(-0.00598899 0.000274754 0)
(-0.00621169 0.000272066 0)
(-0.00643202 0.000268933 0)
(-0.00664962 0.000265367 0)
(-0.00686415 0.000261382 0)
(-0.00707526 0.000256987 0)
(-0.00728264 0.000252195 0)
(-0.00748595 0.000247017 0)
(-0.00768489 0.000241467 0)
(-0.00787917 0.000235555 0)
(-0.00806849 0.000229295 0)
(-0.00825257 0.000222699 0)
(-0.00843115 0.000215777 0)
(-0.00860396 0.000208543 0)
(-0.00877076 0.00020101 0)
(-0.00893129 0.000193189 0)
(-0.00908535 0.000185093 0)
(-0.0092327 0.000176734 0)
(-0.00937313 0.000168123 0)
(-0.00950646 0.000159273 0)
(-0.00963248 0.000150197 0)
(-0.00975102 0.000140909 0)
(-0.00986191 0.000131421 0)
(-0.00996499 0.000121747 0)
(-0.0100601 0.000111898 0)
(-0.0101472 0.000101888 0)
(-0.010226 9.17301e-05 0)
(-0.0102965 8.14387e-05 0)
(-0.0103586 7.10272e-05 0)
(-0.0104121 6.05082e-05 0)
(-0.0104571 4.98945e-05 0)
(-0.0104933 3.91998e-05 0)
(-0.0105208 2.84393e-05 0)
(-0.0105396 1.76284e-05 0)
(-0.0105495 6.78102e-06 0)
(-0.0105506 -4.08952e-06 0)
(-0.0105428 -1.4969e-05 0)
(-0.0105261 -2.58433e-05 0)
(-0.0105006 -3.66983e-05 0)
(-0.0104663 -4.75189e-05 0)
(-0.0104232 -5.82896e-05 0)
(-0.0103714 -6.89958e-05 0)
(-0.0103108 -7.96231e-05 0)
(-0.0102416 -9.01569e-05 0)
(-0.010164 -0.000100583 0)
(-0.0100778 -0.000110886 0)
(-0.00998336 -0.00012105 0)
(-0.00988069 -0.000131059 0)
(-0.00976995 -0.000140896 0)
(-0.00965127 -0.000150546 0)
(-0.00952482 -0.000159995 0)
(-0.00939078 -0.000169228 0)
(-0.00924932 -0.000178229 0)
(-0.00910064 -0.000186979 0)
(-0.00894495 -0.000195464 0)
(-0.00878248 -0.000203667 0)
(-0.00861345 -0.000211574 0)
(-0.00843813 -0.00021917 0)
(-0.00825675 -0.000226441 0)
(-0.00806961 -0.000233371 0)
(-0.00787698 -0.000239943 0)
(-0.00767917 -0.000246142 0)
(-0.00747647 -0.000251952 0)
(-0.00726922 -0.000257358 0)
(-0.00705775 -0.000262346 0)
(-0.00684239 -0.000266903 0)
(-0.00662351 -0.000271017 0)
(-0.00640147 -0.000274674 0)
(-0.00617665 -0.00027786 0)
(-0.00594944 -0.000280562 0)
(-0.00572024 -0.000282766 0)
(-0.00548945 -0.000284458 0)
(-0.00525749 -0.000285628 0)
(-0.00502479 -0.000286266 0)
(-0.00479179 -0.000286363 0)
(-0.00455891 -0.00028591 0)
(-0.00432663 -0.000284898 0)
(-0.00409539 -0.000283317 0)
(-0.00386565 -0.000281157 0)
(-0.00363789 -0.000278411 0)
(-0.00341258 -0.00027507 0)
(-0.0031902 -0.000271129 0)
(-0.00297123 -0.000266584 0)
(-0.00275615 -0.000261432 0)
(-0.00254545 -0.00025567 0)
(-0.00233963 -0.000249301 0)
(-0.00213915 -0.000242323 0)
(-0.00194452 -0.00023474 0)
(-0.0017562 -0.000226553 0)
(-0.00157468 -0.000217767 0)
(-0.00140042 -0.00020839 0)
(-0.00123388 -0.000198434 0)
(-0.00107551 -0.000187911 0)
(-0.000925743 -0.000176842 0)
(-0.000784997 -0.000165246 0)
(-0.000653666 -0.000153151 0)
(-0.000532122 -0.000140586 0)
(-0.000420703 -0.000127589 0)
(-0.000319712 -0.000114205 0)
(-0.00022941 -0.000100489 0)
(-0.00015 -8.65102e-05 0)
(-8.16225e-05 -7.23523e-05 0)
(-2.43385e-05 -5.81207e-05 0)
(2.18873e-05 -4.39481e-05 0)
(5.7206e-05 -3.00007e-05 0)
(8.1913e-05 -1.64891e-05 0)
(9.64803e-05 -3.68027e-06 0)
(0.000101597 8.08553e-06 0)
(9.82187e-05 1.83718e-05 0)
(8.76275e-05 2.66188e-05 0)
(7.14942e-05 3.21166e-05 0)
(5.19028e-05 3.39951e-05 0)
(3.13711e-05 3.12519e-05 0)
(1.33917e-05 2.29174e-05 0)
(2.79072e-06 8.7957e-06 0)
(4.14538e-06 -2.03356e-05 0)
(1.70468e-05 -4.16764e-05 0)
(3.65177e-05 -4.91943e-05 0)
(5.60504e-05 -4.87572e-05 0)
(7.1878e-05 -4.18684e-05 0)
(8.14426e-05 -2.95218e-05 0)
(8.25578e-05 -1.27823e-05 0)
(7.33923e-05 7.36936e-06 0)
(5.25153e-05 3.00768e-05 0)
(1.88753e-05 5.46296e-05 0)
(-2.83434e-05 8.04456e-05 0)
(-8.96683e-05 0.000107037 0)
(-0.000165424 0.000134035 0)
(-0.000255768 0.000161103 0)
(-0.000360695 0.000188003 0)
(-0.000480086 0.000214524 0)
(-0.000613729 0.000240488 0)
(-0.000761303 0.00026577 0)
(-0.000922433 0.000290253 0)
(-0.0010967 0.000313841 0)
(-0.0012836 0.000336472 0)
(-0.00148263 0.000358084 0)
(-0.00169324 0.00037863 0)
(-0.00191484 0.000398074 0)
(-0.00214685 0.000416399 0)
(-0.00238866 0.000433571 0)
(-0.00263963 0.000449594 0)
(-0.00289914 0.000464451 0)
(-0.00316656 0.000478139 0)
(-0.00344125 0.000490664 0)
(-0.00372256 0.000502027 0)
(-0.00400986 0.000512231 0)
(-0.00430251 0.000521291 0)
(-0.00459989 0.000529217 0)
(-0.00490136 0.000536017 0)
(-0.0052063 0.000541708 0)
(-0.00551409 0.000546305 0)
(-0.00582414 0.000549824 0)
(-0.00613585 0.000552282 0)
(-0.00644862 0.0005537 0)
(-0.00676189 0.000554097 0)
(-0.00707508 0.000553492 0)
(-0.00738763 0.000551904 0)
(-0.00769901 0.000549355 0)
(-0.00800867 0.000545867 0)
(-0.00831608 0.000541461 0)
(-0.00862075 0.000536161 0)
(-0.00892218 0.000529987 0)
(-0.00921987 0.000522962 0)
(-0.00951334 0.000515108 0)
(-0.00980215 0.000506449 0)
(-0.0100858 0.000497007 0)
(-0.010364 0.000486805 0)
(-0.0106361 0.000475868 0)
(-0.0109019 0.000464219 0)
(-0.0111609 0.000451883 0)
(-0.0114127 0.000438882 0)
(-0.011657 0.000425241 0)
(-0.0118934 0.000410983 0)
(-0.0121216 0.000396134 0)
(-0.0123412 0.000380718 0)
(-0.0125519 0.000364758 0)
(-0.0127535 0.000348278 0)
(-0.0129456 0.000331305 0)
(-0.0131279 0.000313861 0)
(-0.0133003 0.000295972 0)
(-0.0134624 0.000277665 0)
(-0.0136141 0.000258964 0)
(-0.0137551 0.000239894 0)
(-0.0138852 0.000220482 0)
(-0.0140042 0.000200752 0)
(-0.014112 0.000180731 0)
(-0.0142084 0.000160447 0)
(-0.0142933 0.000139926 0)
(-0.0143664 0.000119193 0)
(-0.0144279 9.82752e-05 0)
(-0.0144774 7.72002e-05 0)
(-0.014515 5.59958e-05 0)
(-0.0145405 3.469e-05 0)
(-0.014554 1.33115e-05 0)
(-0.0145554 -8.11232e-06 0)
(-0.0145447 -2.95539e-05 0)
(-0.0145219 -5.09845e-05 0)
(-0.0144869 -7.23752e-05 0)
(-0.0144399 -9.36976e-05 0)
(-0.0143808 -0.000114922 0)
(-0.0143098 -0.00013602 0)
(-0.0142269 -0.000156961 0)
(-0.0141323 -0.000177716 0)
(-0.0140259 -0.000198256 0)
(-0.0139081 -0.000218552 0)
(-0.0137788 -0.000238571 0)
(-0.0136383 -0.000258283 0)
(-0.0134868 -0.000277657 0)
(-0.0133244 -0.000296663 0)
(-0.0131514 -0.000315271 0)
(-0.0129681 -0.00033345 0)
(-0.0127746 -0.000351168 0)
(-0.0125712 -0.000368395 0)
(-0.0123583 -0.000385097 0)
(-0.0121361 -0.000401246 0)
(-0.0119049 -0.000416811 0)
(-0.0116651 -0.000431762 0)
(-0.0114171 -0.000446069 0)
(-0.0111612 -0.000459703 0)
(-0.0108978 -0.000472632 0)
(-0.0106274 -0.000484826 0)
(-0.0103502 -0.000496256 0)
(-0.0100669 -0.000506893 0)
(-0.00977778 -0.000516708 0)
(-0.00948336 -0.000525675 0)
(-0.00918412 -0.000533767 0)
(-0.00888058 -0.00054096 0)
(-0.00857324 -0.000547226 0)
(-0.00826263 -0.00055254 0)
(-0.0079493 -0.000556876 0)
(-0.00763379 -0.00056021 0)
(-0.00731669 -0.000562521 0)
(-0.00699855 -0.000563788 0)
(-0.00667999 -0.000563992 0)
(-0.00636159 -0.000563114 0)
(-0.00604397 -0.000561138 0)
(-0.00572775 -0.000558046 0)
(-0.00541357 -0.000553821 0)
(-0.00510204 -0.00054845 0)
(-0.00479382 -0.00054192 0)
(-0.00448956 -0.00053422 0)
(-0.0041899 -0.000525343 0)
(-0.00389549 -0.000515284 0)
(-0.00360698 -0.000504041 0)
(-0.00332505 -0.000491614 0)
(-0.00305032 -0.000478005 0)
(-0.00278346 -0.000463221 0)
(-0.00252511 -0.00044727 0)
(-0.00227589 -0.000430164 0)
(-0.00203644 -0.000411922 0)
(-0.00180735 -0.000392567 0)
(-0.00158922 -0.000372128 0)
(-0.00138263 -0.000350645 0)
(-0.00118811 -0.000328161 0)
(-0.00100617 -0.000304731 0)
(-0.000837308 -0.00028042 0)
(-0.000681941 -0.000255307 0)
(-0.000540454 -0.000229487 0)
(-0.000413165 -0.000203073 0)
(-0.000300317 -0.000176206 0)
(-0.000202062 -0.000149057 0)
(-0.00011845 -0.000121834 0)
(-4.93988e-05 -9.47943e-05 0)
(5.32188e-06 -6.82575e-05 0)
(4.61254e-05 -4.26177e-05 0)
(7.36437e-05 -1.83658e-05 0)
(8.87693e-05 3.88752e-06 0)
(9.27038e-05 2.33816e-05 0)
(8.70134e-05 3.91741e-05 0)
(7.36851e-05 5.01138e-05 0)
(5.51375e-05 5.48367e-05 0)
(3.42425e-05 5.18142e-05 0)
(1.50168e-05 3.94992e-05 0)
(3.2241e-06 1.66807e-05 0)
(3.86257e-06 -2.95883e-05 0)
(1.58836e-05 -5.91083e-05 0)
(3.35542e-05 -6.81952e-05 0)
(4.99823e-05 -6.51712e-05 0)
(6.09216e-05 -5.24738e-05 0)
(6.35551e-05 -3.16758e-05 0)
(5.54094e-05 -4.3318e-06 0)
(3.44707e-05 2.81365e-05 0)
(-8.39076e-07 6.45247e-05 0)
(-5.17591e-05 0.000103765 0)
(-0.00011919 0.000144991 0)
(-0.00020377 0.000187491 0)
(-0.000305905 0.000230646 0)
(-0.000425782 0.000273986 0)
(-0.000563415 0.000317093 0)
(-0.000718698 0.000359633 0)
(-0.000891371 0.000401346 0)
(-0.00108109 0.000441998 0)
(-0.00128741 0.000481405 0)
(-0.00150983 0.000519424 0)
(-0.00174777 0.000555929 0)
(-0.00200062 0.000590818 0)
(-0.00226772 0.000624024 0)
(-0.00254837 0.000655477 0)
(-0.00284185 0.000685132 0)
(-0.00314742 0.000712959 0)
(-0.00346432 0.000738926 0)
(-0.00379179 0.000763024 0)
(-0.00412903 0.000785241 0)
(-0.00447527 0.000805576 0)
(-0.00482972 0.000824032 0)
(-0.00519159 0.000840616 0)
(-0.00556009 0.000855342 0)
(-0.00593444 0.000868223 0)
(-0.00631388 0.000879279 0)
(-0.00669761 0.000888533 0)
(-0.00708489 0.000896007 0)
(-0.00747495 0.000901724 0)
(-0.00786705 0.000905712 0)
(-0.00826047 0.000908001 0)
(-0.00865447 0.000908621 0)
(-0.00904835 0.000907604 0)
(-0.00944142 0.000904984 0)
(-0.00983298 0.000900793 0)
(-0.0102224 0.000895065 0)
(-0.0106089 0.000887835 0)
(-0.0109921 0.000879137 0)
(-0.0113711 0.000869009 0)
(-0.0117454 0.000857488 0)
(-0.0121144 0.000844609 0)
(-0.0124775 0.00083041 0)
(-0.0128342 0.000814927 0)
(-0.0131839 0.0007982 0)
(-0.0135261 0.000780266 0)
(-0.0138603 0.000761165 0)
(-0.0141859 0.000740935 0)
(-0.0145025 0.000719615 0)
(-0.0148097 0.000697245 0)
(-0.0151069 0.000673864 0)
(-0.0153937 0.000649511 0)
(-0.0156698 0.000624226 0)
(-0.0159348 0.000598051 0)
(-0.0161881 0.000571023 0)
(-0.0164296 0.000543185 0)
(-0.0166589 0.000514576 0)
(-0.0168755 0.000485237 0)
(-0.0170793 0.000455212 0)
(-0.01727 0.000424541 0)
(-0.0174472 0.000393267 0)
(-0.0176107 0.000361429 0)
(-0.0177603 0.000329073 0)
(-0.0178957 0.00029624 0)
(-0.0180168 0.000262975 0)
(-0.0181234 0.000229321 0)
(-0.0182153 0.000195321 0)
(-0.0182925 0.000161019 0)
(-0.0183546 0.00012646 0)
(-0.0184018 9.16901e-05 0)
(-0.0184338 5.67545e-05 0)
(-0.0184507 2.16987e-05 0)
(-0.0184523 -1.34309e-05 0)
(-0.0184388 -4.85879e-05 0)
(-0.0184099 -8.37263e-05 0)
(-0.0183659 -0.000118799 0)
(-0.0183067 -0.000153757 0)
(-0.0182323 -0.000188555 0)
(-0.018143 -0.000223142 0)
(-0.0180387 -0.000257471 0)
(-0.0179195 -0.000291494 0)
(-0.0177858 -0.000325163 0)
(-0.0176375 -0.000358426 0)
(-0.0174749 -0.000391235 0)
(-0.0172982 -0.000423539 0)
(-0.0171077 -0.000455287 0)
(-0.0169035 -0.000486431 0)
(-0.016686 -0.000516919 0)
(-0.0164555 -0.000546702 0)
(-0.0162122 -0.000575728 0)
(-0.0159566 -0.000603946 0)
(-0.0156889 -0.000631306 0)
(-0.0154096 -0.000657757 0)
(-0.015119 -0.000683251 0)
(-0.0148176 -0.000707737 0)
(-0.0145059 -0.000731167 0)
(-0.0141843 -0.000753491 0)
(-0.0138533 -0.00077466 0)
(-0.0135134 -0.000794626 0)
(-0.0131651 -0.000813341 0)
(-0.012809 -0.000830757 0)
(-0.0124457 -0.000846829 0)
(-0.0120757 -0.000861513 0)
(-0.0116997 -0.000874766 0)
(-0.0113183 -0.000886545 0)
(-0.0109321 -0.000896807 0)
(-0.0105417 -0.000905513 0)
(-0.010148 -0.000912621 0)
(-0.00975148 -0.000918094 0)
(-0.00935296 -0.000921896 0)
(-0.00895313 -0.000923995 0)
(-0.00855274 -0.000924357 0)
(-0.00815253 -0.000922954 0)
(-0.00775326 -0.000919758 0)
(-0.00735571 -0.000914741 0)
(-0.00696066 -0.00090788 0)
(-0.0065689 -0.000899155 0)
(-0.00618124 -0.000888545 0)
(-0.00579846 -0.000876037 0)
(-0.00542137 -0.000861618 0)
(-0.0050508 -0.000845283 0)
(-0.00468753 -0.000827029 0)
(-0.00433239 -0.000806859 0)
(-0.00398617 -0.000784778 0)
(-0.00364968 -0.000760798 0)
(-0.0033237 -0.000734938 0)
(-0.00300901 -0.000707222 0)
(-0.00270636 -0.000677681 0)
(-0.00241651 -0.000646359 0)
(-0.00214016 -0.000613308 0)
(-0.00187802 -0.000578593 0)
(-0.00163072 -0.000542291 0)
(-0.0013989 -0.000504495 0)
(-0.00118311 -0.000465318 0)
(-0.000983863 -0.000424894 0)
(-0.000801607 -0.000383383 0)
(-0.000636703 -0.000340979 0)
(-0.000489421 -0.000297913 0)
(-0.00035992 -0.000254465 0)
(-0.000248231 -0.000210975 0)
(-0.000154233 -0.000167854 0)
(-7.76264e-05 -0.000125604 0)
(-1.7903e-05 -8.48372e-05 0)
(2.56916e-05 -4.62991e-05 0)
(5.41972e-05 -1.09013e-05 0)
(6.89841e-05 2.02463e-05 0)
(7.18028e-05 4.58004e-05 0)
(6.4836e-05 6.41559e-05 0)
(5.07094e-05 7.34367e-05 0)
(3.25289e-05 7.15329e-05 0)
(1.46252e-05 5.61709e-05 0)
(3.20785e-06 2.48606e-05 0)
(3.27652e-06 -3.76678e-05 0)
(1.31522e-05 -7.39868e-05 0)
(2.67278e-05 -8.32828e-05 0)
(3.7295e-05 -7.59835e-05 0)
(4.04448e-05 -5.548e-05 0)
(3.31029e-05 -2.40267e-05 0)
(1.26799e-05 1.62753e-05 0)
(-2.29413e-05 6.36011e-05 0)
(-7.54784e-05 0.000116282 0)
(-0.000146239 0.000172965 0)
(-0.000236204 0.000232448 0)
(-0.000346095 0.000293743 0)
(-0.000476343 0.000356031 0)
(-0.000627176 0.000418617 0)
(-0.000798644 0.000480923 0)
(-0.000990596 0.000542478 0)
(-0.00120278 0.000602885 0)
(-0.00143482 0.000661813 0)
(-0.0016862 0.000718998 0)
(-0.00195637 0.000774214 0)
(-0.00224469 0.000827276 0)
(-0.00255042 0.000878044 0)
(-0.00287284 0.000926385 0)
(-0.00321113 0.000972218 0)
(-0.00356447 0.00101546 0)
(-0.003932 0.00105606 0)
(-0.00431283 0.00109397 0)
(-0.00470607 0.00112917 0)
(-0.00511082 0.00116164 0)
(-0.00552615 0.00119137 0)
(-0.00595114 0.00121836 0)
(-0.00638486 0.00124262 0)
(-0.0068264 0.00126417 0)
(-0.00727482 0.00128302 0)
(-0.00772922 0.00129919 0)
(-0.00818867 0.00131273 0)
(-0.00865229 0.00132365 0)
(-0.00911918 0.001332 0)
(-0.00958845 0.00133782 0)
(-0.0100592 0.00134114 0)
(-0.0105307 0.001342 0)
(-0.011002 0.00134045 0)
(-0.0114722 0.00133655 0)
(-0.0119407 0.00133033 0)
(-0.0124065 0.00132184 0)
(-0.0128689 0.00131115 0)
(-0.0133272 0.00129829 0)
(-0.0137805 0.00128332 0)
(-0.0142282 0.0012663 0)
(-0.0146696 0.00124727 0)
(-0.0151039 0.00122629 0)
(-0.0155305 0.00120342 0)
(-0.0159488 0.00117872 0)
(-0.016358 0.00115223 0)
(-0.0167577 0.00112402 0)
(-0.0171471 0.00109414 0)
(-0.0175257 0.00106265 0)
(-0.017893 0.0010296 0)
(-0.0182485 0.000995068 0)
(-0.0185915 0.000959097 0)
(-0.0189217 0.000921749 0)
(-0.0192385 0.000883085 0)
(-0.0195415 0.000843163 0)
(-0.0198302 0.000802042 0)
(-0.0201043 0.000759784 0)
(-0.0203634 0.000716449 0)
(-0.020607 0.000672099 0)
(-0.0208349 0.000626796 0)
(-0.0210468 0.000580601 0)
(-0.0212422 0.000533576 0)
(-0.021421 0.000485785 0)
(-0.0215829 0.000437291 0)
(-0.0217276 0.00038816 0)
(-0.021855 0.000338453 0)
(-0.0219648 0.000288237 0)
(-0.0220569 0.000237577 0)
(-0.0221312 0.000186539 0)
(-0.0221875 0.00013519 0)
(-0.0222256 8.35971e-05 0)
(-0.0222457 3.18282e-05 0)
(-0.0222475 -2.00486e-05 0)
(-0.0222312 -7.19647e-05 0)
(-0.0221966 -0.000123851 0)
(-0.0221438 -0.000175639 0)
(-0.0220728 -0.000227257 0)
(-0.0219838 -0.000278634 0)
(-0.0218768 -0.0003297 0)
(-0.021752 -0.000380382 0)
(-0.0216095 -0.00043061 0)
(-0.0214494 -0.000480311 0)
(-0.021272 -0.000529411 0)
(-0.0210775 -0.000577838 0)
(-0.0208662 -0.000625516 0)
(-0.0206383 -0.000672372 0)
(-0.0203941 -0.000718333 0)
(-0.0201339 -0.000763324 0)
(-0.0198582 -0.000807271 0)
(-0.0195673 -0.000850099 0)
(-0.0192616 -0.000891733 0)
(-0.0189416 -0.000932099 0)
(-0.0186076 -0.000971124 0)
(-0.0182602 -0.00100873 0)
(-0.0178999 -0.00104486 0)
(-0.0175272 -0.00107942 0)
(-0.0171427 -0.00111234 0)
(-0.016747 -0.00114357 0)
(-0.0163406 -0.00117302 0)
(-0.0159243 -0.00120062 0)
(-0.0154986 -0.00122631 0)
(-0.0150643 -0.00125002 0)
(-0.014622 -0.00127169 0)
(-0.0141725 -0.00129124 0)
(-0.0137165 -0.00130862 0)
(-0.0132548 -0.00132377 0)
(-0.0127882 -0.00133663 0)
(-0.0123175 -0.00134714 0)
(-0.0118434 -0.00135524 0)
(-0.0113669 -0.00136088 0)
(-0.0108888 -0.00136402 0)
(-0.0104101 -0.00136461 0)
(-0.00993143 -0.00136261 0)
(-0.00945389 -0.00135797 0)
(-0.00897834 -0.00135066 0)
(-0.00850571 -0.00134064 0)
(-0.00803694 -0.00132789 0)
(-0.00757296 -0.00131238 0)
(-0.00711473 -0.0012941 0)
(-0.00666319 -0.00127302 0)
(-0.0062193 -0.00124914 0)
(-0.00578401 -0.00122246 0)
(-0.00535827 -0.00119299 0)
(-0.00494302 -0.00116073 0)
(-0.00453919 -0.00112571 0)
(-0.00414772 -0.00108796 0)
(-0.00376949 -0.00104751 0)
(-0.00340541 -0.00100443 0)
(-0.00305632 -0.000958778 0)
(-0.00272306 -0.000910634 0)
(-0.00240643 -0.000860098 0)
(-0.00210718 -0.000807292 0)
(-0.001826 -0.000752357 0)
(-0.00156355 -0.000695464 0)
(-0.0013204 -0.000636816 0)
(-0.00109704 -0.000576655 0)
(-0.000893882 -0.000515268 0)
(-0.000711207 -0.000452997 0)
(-0.000549181 -0.000390253 0)
(-0.000407823 -0.000327524 0)
(-0.000286979 -0.0002654 0)
(-0.000186299 -0.000204586 0)
(-0.000105206 -0.000145933 0)
(-4.28623e-05 -9.04607e-05 0)
(1.86916e-06 -3.93975e-05 0)
(3.04632e-05 5.78757e-06 0)
(4.47788e-05 4.33448e-05 0)
(4.71064e-05 7.12099e-05 0)
(4.01858e-05 8.69819e-05 0)
(2.72578e-05 8.79331e-05 0)
(1.27606e-05 7.09977e-05 0)
(2.89987e-06 3.24033e-05 0)
(2.53319e-06 -4.39717e-05 0)
(9.4102e-06 -8.4755e-05 0)
(1.72142e-05 -9.23368e-05 0)
(1.97924e-05 -7.87219e-05 0)
(1.27615e-05 -4.82723e-05 0)
(-7.03003e-06 -3.91582e-06 0)
(-4.22146e-05 5.17341e-05 0)
(-9.5002e-05 0.000116306 0)
(-0.00016712 0.000187819 0)
(-0.000259923 0.000264493 0)
(-0.000374468 0.000344849 0)
(-0.000511462 0.000427616 0)
(-0.000671395 0.000511725 0)
(-0.000854512 0.000596267 0)
(-0.00106084 0.000680493 0)
(-0.00129025 0.000763762 0)
(-0.00154246 0.000845539 0)
(-0.00181704 0.000925388 0)
(-0.00211347 0.00100293 0)
(-0.00243111 0.00107786 0)
(-0.00276926 0.00114993 0)
(-0.00312713 0.00121893 0)
(-0.00350388 0.00128468 0)
(-0.00389863 0.00134706 0)
(-0.00431044 0.00140595 0)
(-0.00473835 0.00146126 0)
(-0.00518137 0.00151295 0)
(-0.00563849 0.00156096 0)
(-0.00610868 0.00160525 0)
(-0.00659089 0.00164583 0)
(-0.0070841 0.00168268 0)
(-0.00758724 0.00171581 0)
(-0.00809926 0.00174523 0)
(-0.00861912 0.00177098 0)
(-0.00914576 0.00179307 0)
(-0.00967814 0.00181154 0)
(-0.0102152 0.00182644 0)
(-0.010756 0.00183781 0)
(-0.0112995 0.0018457 0)
(-0.0118447 0.00185017 0)
(-0.0123906 0.00185127 0)
(-0.0129362 0.00184906 0)
(-0.0134806 0.00184361 0)
(-0.0140228 0.00183498 0)
(-0.014562 0.00182323 0)
(-0.0150972 0.00180844 0)
(-0.0156276 0.00179067 0)
(-0.0161523 0.00177 0)
(-0.0166704 0.0017465 0)
(-0.0171812 0.00172023 0)
(-0.0176838 0.00169129 0)
(-0.0181774 0.00165973 0)
(-0.0186614 0.00162564 0)
(-0.0191349 0.00158909 0)
(-0.0195973 0.00155017 0)
(-0.0200479 0.00150895 0)
(-0.020486 0.00146551 0)
(-0.020911 0.00141992 0)
(-0.0213222 0.00137228 0)
(-0.0217191 0.00132266 0)
(-0.022101 0.00127113 0)
(-0.0224675 0.0012178 0)
(-0.022818 0.00116272 0)
(-0.0231521 0.00110599 0)
(-0.0234691 0.0010477 0)
(-0.0237688 0.000987919 0)
(-0.0240506 0.000926739 0)
(-0.0243142 0.000864244 0)
(-0.0245592 0.000800519 0)
(-0.0247852 0.000735651 0)
(-0.024992 0.000669727 0)
(-0.0251792 0.000602835 0)
(-0.0253465 0.000535064 0)
(-0.0254938 0.000466501 0)
(-0.0256207 0.000397237 0)
(-0.0257271 0.000327362 0)
(-0.0258129 0.000256968 0)
(-0.0258779 0.000186147 0)
(-0.0259219 0.00011499 0)
(-0.025945 4.35924e-05 0)
(-0.025947 -2.79518e-05 0)
(-0.0259279 -9.95484e-05 0)
(-0.0258878 -0.000171102 0)
(-0.0258266 -0.000242516 0)
(-0.0257444 -0.000313694 0)