/*--------------------------------*- C++ -*----------------------------------*\
  =========                 |
  \\      /  F ield         | OpenFOAM: The Open Source CFD Toolbox
   \\    /   O peration     | Website:  https://openfoam.org
    \\  /    A nd           | Version:  7
     \\/     M anipulation  |
\*---------------------------------------------------------------------------*/
FoamFile
{
    version     2.0;
    format      ascii;
    class       volScalarField;
    location    "0.4";
    object      p;
}
// * * * * * * * * * * * * * * * * * * * * * * * * * * * * * * * * * * * * * //

dimensions      [0 2 -2 0 0 0 0];

internalField   nonuniform List<scalar> 
1600
(
7.2994e-06
-0.00117874
-0.00390856
-0.00758237
-0.0115272
-0.0152474
-0.0183852
-0.0206883
-0.0219891
-0.0221878
-0.0212389
-0.0191404
-0.0159257
-0.0116577
-0.00642388
-0.000331828
0.00649346
0.0139126
0.0217743
0.0299175
0.0381741
0.0463715
0.0543353
0.0618926
0.0688757
0.0751261
0.0804992
0.084869
0.0881339
0.0902226
0.0911
0.0907749
0.0893075
0.0868188
0.0835023
0.0796371
0.0756034
0.0719101
0.0692249
0.0681092
0.00120092
1.05326e-05
-0.00220585
-0.00505702
-0.00809962
-0.0109684
-0.0133787
-0.0151175
-0.0160347
-0.0160342
-0.0150661
-0.0131188
-0.0102132
-0.00639739
-0.0017425
0.00366077
0.00970525
0.01627
0.0232225
0.0304216
0.0377192
0.0449633
0.0520008
0.0586805
0.0648564
0.0703917
0.0751631
0.0790649
0.0820141
0.0839558
0.084868
0.0847676
0.0837166
0.081828
0.0792722
0.0762833
0.0731632
0.0702881
0.0681053
0.0669953
0.00394569
0.00221822
-2.86488e-05
-0.00258798
-0.00521669
-0.00764499
-0.00964924
-0.0110578
-0.011745
-0.0116271
-0.0106582
-0.00882498
-0.00614282
-0.00265148
0.00158818
0.00649716
0.011981
0.0179323
0.0242327
0.0307554
0.0373676
0.0439325
0.0503123
0.0563712
0.0619785
0.0670123
0.0713631
0.0749381
0.0776655
0.0794988
0.0804213
0.0804508
0.0796437
0.0780991
0.0759609
0.0734198
0.0707161
0.0681314
0.0659244
0.0643072
0.00770923
0.00509804
0.00245694
-0.000172036
-0.00272711
-0.00500845
-0.00684183
-0.0080955
-0.00867103
-0.00850165
-0.0075507
-0.0058088
-0.00329077
-3.28433e-05
0.00391003
0.00846649
0.013551
0.0190658
0.0249031
0.030947
0.0370757
0.0431635
0.0490838
0.0547115
0.0599263
0.0646157
0.0686788
0.07203
0.0746027
0.0763534
0.0772652
0.0773513
0.0766583
0.0752678
0.073297
0.0708975
0.0682616
0.0656044
0.0630133
0.0605448
0.0118977
0.00825802
0.00504928
0.00216864
-0.00048905
-0.00277994
-0.00457149
-0.00576906
-0.00630148
-0.00612037
-0.00520078
-0.00353975
-0.0011544
0.00192001
0.00563195
0.00991535
0.0146914
0.0198699
0.0253516
0.0310292
0.0367896
0.0425163
0.048091
0.0533968
0.0583207
0.0627567
0.0666093
0.0697967
0.0722544
0.0739384
0.0748283
0.0749302
0.0742785
0.0729368
0.0709961
0.0685733
0.0658217
0.0629045
0.0597511
0.0562811
0.016085
0.0113739
0.00750484
0.00425475
0.00137218
-0.00104189
-0.00288852
-0.00410576
-0.00464784
-0.00448466
-0.00360391
-0.00201056
0.000274142
0.00321391
0.0067586
0.0108455
0.0154003
0.0203389
0.025568
0.0309871
0.03649
0.0419666
0.047305
0.0523937
0.0571246
0.0613955
0.0651133
0.0681972
0.0705817
0.0722198
0.0730853
0.0731753
0.0725112
0.071139
0.0691258
0.0665586
0.0635613
0.0602589
0.0564434
0.0519217
0.0199619
0.0141844
0.00960849
0.00591298
0.00272084
0.00010164
-0.00187161
-0.00316474
-0.00375467
-0.00362858
-0.00278682
-0.0012431
0.000975998
0.00383167
0.00727353
0.0112404
0.015661
0.0204549
0.0255334
0.0308009
0.0361557
0.0414923
0.0467028
0.051679
0.056315
0.06051
0.0641707
0.0672146
0.069573
0.0711935
0.0720423
0.0721062
0.0713934
0.0699331
0.0677717
0.064972
0.0616361
0.0578639
0.0533307
0.0477531
0.0232954
0.0164756
0.0111751
0.00699064
0.00343635
0.000559297
-0.00158715
-0.00299202
-0.00365214
-0.00357047
-0.00275961
-0.00124223
0.00094905
0.00377187
0.00717437
0.0110955
0.0154655
0.0202061
0.0252317
0.0304495
0.035761
0.0410632
0.0462501
0.051215
0.0558521
0.0600596
0.0637418
0.0668125
0.0691973
0.0708367
0.0716877
0.071726
0.0709468
0.0693637
0.0670055
0.0639149
0.0601799
0.0558846
0.0506051
0.0439836
0.0259032
0.0180683
0.0120401
0.00734435
0.00339824
0.000232902
-0.00211307
-0.00364812
-0.00438641
-0.00434522
-0.00354866
-0.00202834
0.000176702
0.00301986
0.00644686
0.0103958
0.014797
0.0195734
0.0246406
0.0299077
0.0352776
0.0406482
0.0459141
0.0509677
0.0557017
0.0600113
0.0637967
0.0669656
0.0694364
0.0711406
0.0720248
0.0720529
0.0712068
0.0694862
0.066904
0.0634876
0.0593159
0.0544646
0.0484224
0.0407689
0.027635
0.018807
0.0120539
0.00683707
0.00248498
-0.000982772
-0.00353876
-0.00520798
-0.00601986
-0.00600469
-0.00519744
-0.00363843
-0.00137335
0.00154645
0.00506362
0.00911446
0.0136286
0.018529
0.0237316
0.0291457
0.0346747
0.0402161
0.0456632
0.0509066
0.0558354
0.0603404
0.0643154
0.0676608
0.0702857
0.0721112
0.0730722
0.0731197
0.0722225
0.0703666
0.0675514
0.0637916
0.0591612
0.0537328
0.0469152
0.0382318
0.0283577
0.0185499
0.0110758
0.00533566
0.000574068
-0.00319798
-0.00596182
-0.00775696
-0.00862667
-0.00861323
-0.007762
-0.00612185
-0.00374524
-0.000688592
0.0029871
0.00721574
0.0119255
0.0170385
0.0224701
0.0281293
0.0339183
0.0397335
0.0454659
0.0510025
0.056228
0.0610266
0.0652845
0.0688928
0.07175
0.0737648
0.0748591
0.0749702
0.0740529
0.0720798
0.0690376
0.0649305
0.0598304
0.0538104
0.0462031
0.0364784
0.027946
0.017162
0.00896896
0.00270755
-0.0024596
-0.0065284
-0.00948749
-0.0113897
-0.0122913
-0.012246
-0.0113093
-0.00953858
-0.00699323
-0.00373507
0.000170904
0.0046557
0.00964552
0.015061
0.0208164
0.0268196
0.0329711
0.0391652
0.0452895
0.0512267
0.0568555
0.0620525
0.0666948
0.0706622
0.0738409
0.0761259
0.0774241
0.0776577
0.0767664
0.0747091
0.0714599
0.067013
0.0614404
0.0548178
0.046402
0.0356099
0.0262741
0.0145082
0.00559548
-0.00118277
-0.00674601
-0.0110963
-0.014229
-0.0162098
-0.0171077
-0.0169879
-0.015916
-0.013958
-0.0111805
-0.00765113
-0.00343908
0.00138338
0.00674011
0.01255
0.0187258
0.0251736
0.0317923
0.038473
0.0450997
0.0515497
0.0576948
0.0634029
0.0685403
0.0729743
0.0765766
0.0792265
0.0808142
0.0812449
0.0804416
0.078348
0.0749247
0.0701563
0.0641151
0.0568808
0.0476321
0.0357314
0.0232114
0.0104485
0.000812215
-0.00647701
-0.0124223
-0.0170321
-0.0203083
-0.0223299
-0.023179
-0.0229327
-0.0216671
-0.0194575
-0.0163778
-0.0125018
-0.00790323
-0.00265787
0.00315564
0.00945426
0.0161492
0.0231449
0.0303379
0.0376165
0.0448603
0.051941
0.0587225
0.0650631
0.0708171
0.0758376
0.0799799
0.0831052
0.0850848
0.0858042
0.0851676
0.0831013
0.0795509
0.0744897
0.0679903
0.0601367
0.0500248
0.0369595
0.0186175
0.00483409
-0.0055331
-0.0133262
-0.0196353
-0.0244756
-0.0278566
-0.0298717
-0.0306169
-0.0301821
-0.0286551
-0.0261207
-0.0226614
-0.018357
-0.0132863
-0.00752861
-0.00116504
0.00571956
0.013035
0.0206842
0.0285617
0.036553
0.0445335
0.0523687
0.0599147
0.067019
0.0735228
0.0792635
0.0840778
0.0878064
0.0902988
0.0914178
0.0910454
0.0890876
0.085472
0.0801584
0.0732186
0.06474
0.0537291
0.0394293
0.0123389
-0.00249693
-0.0136055
-0.021894
-0.0285436
-0.0335781
-0.0370158
-0.0389661
-0.0395409
-0.0388446
-0.0369777
-0.0340361
-0.030111
-0.0252893
-0.0196551
-0.0132909
-0.00628034
0.00129041
0.0093302
0.017741
0.0264161
0.0352385
0.0440799
0.0528
0.0612465
0.0692561
0.0766556
0.0832651
0.0889009
0.0933803
0.0965274
0.0981784
0.0981892
0.0964411
0.0928397
0.0873279
0.0799743
0.0708681
0.0589177
0.0432998
0.00420578
-0.0117231
-0.0235865
-0.0323598
-0.0393211
-0.0445043
-0.0479392
-0.0497536
-0.0500782
-0.0490341
-0.0467364
-0.0432937
-0.0388072
-0.0333712
-0.0270752
-0.0200054
-0.0122469
-0.00388694
0.00498342
0.0142661
0.0238542
0.0336292
0.04346
0.0532012
0.0626925
0.0717594
0.080214
0.0878573
0.094483
0.0998822
0.103849
0.10619
0.106728
0.105314
0.101828
0.0961886
0.088459
0.0787276
0.0657935
0.0487607
-0.00597145
-0.0230436
-0.0356786
-0.0449229
-0.0521591
-0.0574342
-0.0607924
-0.0623842
-0.0623624
-0.0608682
-0.058034
-0.053983
-0.0488277
-0.0426709
-0.0356076
-0.0277272
-0.019116
-0.00986095
-5.19575e-05
0.0102145
0.0208324
0.0316838
0.0426359
0.0535395
0.0642274
0.0745141
0.0841966
0.0930558
0.100861
0.107373
0.112352
0.115568
0.116807
0.115881
0.112635
0.106961
0.098908
0.088561
0.0745964
0.0560386
-0.0184063
-0.0366836
-0.0501098
-0.0598068
-0.0672707
-0.0725657
-0.075755
-0.0770172
-0.0765322
-0.0744656
-0.0709708
-0.0661881
-0.060243
-0.0532479
-0.0453032
-0.0365011
-0.0269284
-0.0166701
-0.0058134
0.0055488
0.0173139
0.0293661
0.0415734
0.0537846
0.0658272
0.0775058
0.0886025
0.0988776
0.108073
0.115917
0.122132
0.126442
0.128589
0.12834
0.125492
0.119901
0.111597
0.100655
0.0856118
0.0654051
-0.033341
-0.0529
-0.0671405
-0.077265
-0.0848949
-0.0901173
-0.0930213
-0.0938206
-0.0927293
-0.0899429
-0.0856405
-0.0799829
-0.0731108
-0.0651466
-0.0561969
-0.0463558
-0.0357088
-0.0243375
-0.0123239
0.000244996
0.0132728
0.0266491
0.0402454
0.0539112
0.0674711
0.0807219
0.0934318
0.10534
0.116161
0.125585
0.133292
0.138955
0.14226
0.142915
0.140663
0.135308
0.126852
0.115349
0.0991806
0.0771858
-0.051054
-0.0719902
-0.087072
-0.0975882
-0.105302
-0.110332
-0.112801
-0.11297
-0.111095
-0.10741
-0.102125
-0.0954247
-0.0874684
-0.0783896
-0.0683004
-0.0572957
-0.0454583
-0.0328636
-0.0195858
-0.00570235
0.00869989
0.0235196
0.0386355
0.0539019
0.0691437
0.0841528
0.0986858
0.112462
0.125166
0.136451
0.145945
0.153263
0.158023
0.159864
0.158455
0.153532
0.145055
0.133049
0.115711
0.0917717
-0.0718691
-0.0943037
-0.110258
-0.121114
-0.128801
-0.133479
-0.135322
-0.134647
-0.131767
-0.126963
-0.120484
-0.112545
-0.103325
-0.092968
-0.0815928
-0.0692932
-0.0561465
-0.0422191
-0.0275732
-0.0122732
0.00360812
0.0199831
0.0367429
0.0537508
0.0708373
0.0877936
0.104368
0.120263
0.135133
0.148591
0.160209
0.169536
0.176109
0.179478
0.179221
0.174985
0.166666
0.154242
0.135694
0.109634
-0.0961695
-0.120258
-0.137118
-0.148241
-0.155748
-0.159863
-0.160826
-0.159034
-0.154871
-0.148678
-0.140752
-0.131341
-0.120648
-0.108831
-0.096011
-0.0822786
-0.0677024
-0.0523357
-0.0362246
-0.0194151
-0.00196067
0.0160702
0.0345866
0.0534676
0.0725549
0.0916452
0.110484
0.12876
0.146102
0.16208
0.176208
0.187957
0.196769
0.202088
0.203371
0.200149
0.192228
0.179512
0.159726
0.131342
-0.124418
-0.150362
-0.168165
-0.179443
-0.186558
-0.189823
-0.189573
-0.186311
-0.180513
-0.172597
-0.162916
-0.15176
-0.139357
-0.125875
-0.111438
-0.0961294
-0.0800044
-0.063098
-0.0454344
-0.0270356
-0.00792952
0.0118411
0.0322105
0.0530808
0.0743126
0.095716
0.117041
0.13797
0.15811
0.17699
0.194064
0.208715
0.220278
0.228062
0.231377
0.229595
0.222396
0.209573
0.188535
0.157591
-0.157187
-0.18525
-0.20403
-0.215296
-0.221718
-0.223741
-0.221836
-0.216645
-0.208767
-0.198714
-0.186909
-0.173686
-0.159299
-0.143927
-0.127691
-0.11066
-0.0928712
-0.0743346
-0.055046
-0.0349963
-0.0141809
0.00739095
0.0296867
0.0526401
0.0761404
0.100021
0.124047
0.147903
0.171183
0.193382
0.213892
0.232005
0.246928
0.257814
0.26378
0.263998
0.25796
0.245297
0.223021
0.189237
-0.195201
-0.225731
-0.245508
-0.256507
-0.261804
-0.262045
-0.257891
-0.250177
-0.239656
-0.226957
-0.212584
-0.19692
-0.180242
-0.162735
-0.144507
-0.125611
-0.106053
-0.0858117
-0.0648462
-0.0431085
-0.0205534
0.00285183
0.0271169
0.0522172
0.0780819
0.10458
0.131504
0.158556
0.185329
0.211294
0.235787
0.258006
0.27702
0.29179
0.301201
0.304152
0.29988
0.287768
0.264307
0.227347
-0.239404
-0.272857
-0.293619
-0.303953
-0.307501
-0.305207
-0.29801
-0.286998
-0.273125
-0.257158
-0.239691
-0.221157
-0.201849
-0.181946
-0.161537
-0.14064
-0.119226
-0.097229
-0.0745629
-0.051132
-0.0268415
-0.00160783
0.0246309
0.051903
0.0801899
0.109411
0.139403
0.169903
0.200523
0.230726
0.259806
0.286872
0.310844
0.330467
0.344337
0.351
0.34933
0.338342
0.313824
0.273274
-0.291067
-0.328041
-0.349699
-0.358737
-0.359619
-0.353739
-0.34243
-0.327117
-0.309004
-0.28902
-0.267849
-0.245965
-0.223663
-0.201101
-0.17833
-0.15532
-0.131991
-0.108221
-0.083868
-0.0587792
-0.0328009
-0.00578913
0.0223802
0.0518
0.0825181
0.11452
0.147709
0.181879
0.216685
0.251612
0.285935
0.31869
0.348652
0.374326
0.393959
0.405643
0.407752
0.398745
0.373426
0.328773
-0.351945
-0.393214
-0.415517
-0.422251
-0.419106
-0.408165
-0.391309
-0.370408
-0.346961
-0.322072
-0.296506
-0.270754
-0.245089
-0.219619
-0.194333
-0.169136
-0.143876
-0.118363
-0.0923862
-0.0657256
-0.0381596
-0.0094749
0.0205249
0.0520091
0.0851064
0.119888
0.156344
0.194355
0.233656
0.273789
0.314051
0.353441
0.390607
0.423808
0.450886
0.469363
0.476923
0.471198
0.445563
0.396175
-0.424562
-0.471096
-0.493457
-0.496251
-0.487049
-0.46897
-0.444656
-0.416529
-0.386426
-0.355611
-0.324897
-0.29475
-0.265375
-0.236792
-0.208896
-0.181498
-0.154353
-0.127189
-0.0997134
-0.0716289
-0.0426378
-0.0124493
0.0192142
0.0526091
0.0879592
0.12544
0.165156
0.207109
0.251153
0.296943
0.343857
0.390918
0.4367
0.479237
0.515933
0.543611
0.559029
0.558605
0.533566
0.478691
-0.512682
-0.565602
-0.586755
-0.582925
-0.564621
-0.536495
-0.502198
-0.46481
-0.426498
-0.388635
-0.352005
-0.316973
-0.28361
-0.251794
-0.221281
-0.191755
-0.162859
-0.134216
-0.105443
-0.0761562
-0.045975
-0.0145251
0.0185589
0.0536293
0.091018
0.131024
0.173891
0.21978
0.268721
0.320545
0.374799
0.430627
0.486629
0.54069
0.589793
0.629954
0.656734
0.664789
0.642071
0.580919
-0.622177
-0.6825
-0.699815
-0.684925
-0.652949
-0.610737
-0.563192
-0.514084
-0.465825
-0.419761
-0.376511
-0.336219
-0.298727
-0.263696
-0.230692
-0.199235
-0.168829
-0.138981
-0.109203
-0.0790196
-0.0479646
-0.0155773
0.0185988
0.0550174
0.0941276
0.136367
0.182147
0.231827
0.285669
0.343768
0.405954
0.471637
0.539609
0.60778
0.672823
0.729931
0.773203
0.794821
0.77771
0.709772
-0.762662
-0.830469
-0.838572
-0.805281
-0.752825
-0.69101
-0.626117
-0.562462
-0.502454
-0.447145
-0.396767
-0.351065
-0.309525
-0.271504
-0.236318
-0.203285
-0.17175
-0.141085
-0.110697
-0.0800175
-0.0484931
-0.0155798
0.0192683
0.0566063
0.0970042
0.14105
0.189342
0.242476
0.30101
0.365401
0.435901
0.512389
0.594115
0.679322
0.76468
0.844734
0.911996
0.955376
0.950202
0.876239
-0.950826
-1.02277
-1.01076
-0.94697
-0.86406
-0.775345
-0.688216
-0.607034
-0.533662
-0.46841
-0.410783
-0.359897
-0.314724
-0.274221
-0.237396
-0.203336
-0.171207
-0.140247
-0.109756
-0.0790757
-0.0475768
-0.0146386
0.0203657
0.0580856
0.0992084
0.144473
0.194677
0.250684
0.313401
0.383747
0.462565
0.550456
0.647506
0.752806
0.863639
0.97449
1.07658
1.15497
1.17408
1.09894
-1.21718
-1.27971
-1.22551
-1.11154
-0.984072
-0.859371
-0.744754
-0.643428
-0.555739
-0.480568
-0.416237
-0.360957
-0.313025
-0.270911
-0.233275
-0.198955
-0.16694
-0.136343
-0.106366
-0.0762799
-0.04539
-0.0130164
0.0215325
0.0589847
0.10013
0.145846
0.197127
0.255111
0.321094
0.396542
0.483049
0.582236
0.695508
0.823558
0.96537
1.11672
1.26884
1.40348
1.47115
1.41122
-1.61771
-1.63095
-1.49153
-1.29672
-1.10589
-0.935007
-0.788313
-0.665547
-0.563984
-0.48014
-0.410641
-0.352516
-0.303266
-0.260831
-0.223517
-0.18993
-0.158906
-0.129454
-0.100711
-0.071894
-0.0422723
-0.0111291
0.0222671
0.0586967
0.0990238
0.144237
0.195499
0.2542
0.322025
0.40102
0.493657
0.602848
0.731862
0.883978
1.06156
1.26423
1.4865
1.71008
1.8724
1.87274
-2.25446
-2.11587
-1.81359
-1.49443
-1.21742
-0.990515
-0.809417
-0.666454
-0.553626
-0.464013
-0.392067
-0.333471
-0.284903
-0.243804
-0.208188
-0.176484
-0.147428
-0.119973
-0.0932226
-0.0663826
-0.0387133
-0.00949349
0.0220165
0.0566137
0.0951959
0.138815
0.188745
0.246567
0.31429
0.394502
0.490567
0.606857
0.748991
0.923946
1.13978
1.40421
1.72094
2.07939
2.41784
2.58911
-3.35592
-2.78318
-2.1727
-1.67585
-1.29258
-1.00573
-0.794149
-0.637274
-0.51933
-0.429174
-0.358974
-0.303183
-0.257839
-0.22006
-0.187703
-0.159137
-0.13308
-0.108494
-0.0845067
-0.0603498
-0.035315
-0.00871276
0.0201665
0.0520927
0.0879444
0.128768
0.17586
0.230876
0.295999
0.374172
0.469456
0.58755
0.736532
0.927896
1.17797
1.50834
1.94099
2.49108
3.15796
3.79444
-5.52067
-3.66081
-2.43095
-1.71417
-1.24179
-0.921815
-0.704868
-0.55397
-0.445494
-0.365211
-0.304189
-0.256572
-0.218404
-0.186922
-0.16013
-0.136537
-0.11499
-0.0945601
-0.0744742
-0.0540538
-0.032674
-0.00972694
0.0154135
0.0434289
0.0751004
0.111365
0.153397
0.202716
0.261368
0.332194
0.419275
0.528676
0.669681
0.857074
1.11541
1.48391
2.01598
2.8054
4.12342
6.0914
-9.20662
-4.51956
-2.30623
-1.42119
-0.958942
-0.682908
-0.512253
-0.400582
-0.322916
-0.266417
-0.223893
-0.190915
-0.164573
-0.142857
-0.124313
-0.107841
-0.0925824
-0.0778387
-0.0630197
-0.0476042
-0.0311092
-0.0130639
0.00701684
0.0296587
0.0554602
0.0851344
0.119565
0.159891
0.207632
0.264899
0.334752
0.421856
0.533759
0.683747
0.89745
1.22411
1.75391
2.73326
5.06142
9.86893
)
;

boundaryField
{
    movingWall
    {
        type            zeroGradient;
    }
    fixedWalls
    {
        type            zeroGradient;
    }
    frontAndBack
    {
        type            empty;
    }
}


// ************************************************************************* //
